  779  779    1    1
  0.2904675E+02  0.2828427E-08  0.2828427E-08  0.2828427E-08  0.5000000E-15
  1.000000000000000E-004
  CAR 
 AlSm                                    
 6425    1 3856
