 vasp.5.3.2 13Sep12 (build Sep 30 2012 21:27:05) gamma-only                     
  
 executed on             LinuxIFC date 2016.04.25  15:49:19
 running on   56 total cores
 distrk:  each k-point on   56 cores,    1 groups
 distr:  one band on NCORES_PER_BAND=  14 cores,    4 groups


--------------------------------------------------------------------------------------------------------


 INCAR:
 POTCAR:   PAW_GGA Al 05Jan2001                   
 POTCAR:   PAW_GGA Sm_2 07Jan2002                 
 POTCAR:   PAW_GGA Al 05Jan2001                   
  local pseudopotential read in
  partial core-charges read in
  atomic valenz-charges read in
  non local Contribution for L=           0  read in
    real space projection operators read in
  non local Contribution for L=           0  read in
    real space projection operators read in
  non local Contribution for L=           1  read in
    real space projection operators read in
  non local Contribution for L=           1  read in
    real space projection operators read in
    PAW grid and wavefunctions read in
 
   number of l-projection  operators is LMAX  =           4
   number of lm-projection operators is LMMAX =           8
 
 POTCAR:   PAW_GGA Sm_2 07Jan2002                 
  local pseudopotential read in
  partial core-charges read in
  atomic valenz-charges read in
  non local Contribution for L=           0  read in
    real space projection operators read in
  non local Contribution for L=           0  read in
    real space projection operators read in
  non local Contribution for L=           1  read in
    real space projection operators read in
  non local Contribution for L=           1  read in
    real space projection operators read in
  non local Contribution for L=           2  read in
    real space projection operators read in
  non local Contribution for L=           2  read in
    real space projection operators read in
    PAW grid and wavefunctions read in
 
   number of l-projection  operators is LMAX  =           6
   number of lm-projection operators is LMMAX =          18
 
 Optimization of the real space projectors (new method)

 maximal supplied QI-value         = 19.84
 optimisation between [QCUT,QGAM] = [  7.94, 15.87] = [ 17.64, 70.56] Ry 
 Optimized for a Real-space Cutoff    1.58 Angstroem

   l    n(q)    QCUT    max X(q) W(low)/X(q) W(high)/X(q)  e(spline) 
   0      7     7.937    13.323    0.33E-04    0.17E-04    0.14E-07
   0      7     7.937   140.353    0.18E-03    0.23E-03    0.12E-06
   1      7     7.937     9.534    0.24E-04    0.42E-04    0.58E-07
   1      7     7.937    52.629    0.32E-03    0.43E-03    0.14E-06
 Optimization of the real space projectors (new method)

 maximal supplied QI-value         = 13.42
 optimisation between [QCUT,QGAM] = [  7.92, 15.83] = [ 17.55, 70.19] Ry 
 Optimized for a Real-space Cutoff    1.89 Angstroem

   l    n(q)    QCUT    max X(q) W(low)/X(q) W(high)/X(q)  e(spline) 
   0      9     7.916     8.877    0.19E-04    0.89E-06    0.60E-08
   0      9     7.916    11.718    0.63E-04    0.15E-04    0.39E-07
   1      8     7.916     4.610    0.52E-05    0.20E-04    0.26E-07
   1      8     7.916     4.824    0.16E-03    0.45E-04    0.12E-06
   2      8     7.916     5.429    0.78E-04    0.60E-05    0.39E-07
   2      8     7.916    26.845    0.47E-03    0.25E-03    0.31E-06
 PAW_GGA Al 05Jan2001                   :
 energy of atom  1       EATOM=  -53.6910
 kinetic energy error for atom=    0.0030 (will be added to EATOM!!)
 PAW_GGA Sm_2 07Jan2002                 :
 energy of atom  2       EATOM= -828.8171
 kinetic energy error for atom=    0.0092 (will be added to EATOM!!)
 
 
 POSCAR:  MRO_AlSm                               
  positions in direct lattice
  No initial velocities read in
 exchange correlation table for  LEXCH =        7
   RHO(1)=    0.500       N(1)  =     2000
   RHO(2)=  100.500       N(2)  =     4000
 


--------------------------------------------------------------------------------------------------------


 ion  position               nearest neighbor table
   1  0.547  0.400  0.969- 409 1.16 442 1.50 335 2.33 555 2.52 131 2.60 776 2.76 771 2.77  22 3.00
                            78 3.26 703 3.40 247 3.54
   2  0.486  0.292  0.524- 269 1.04 530 1.42  63 2.38 678 2.99
   3  0.393  0.605  0.665- 654 1.62 434 1.88 730 2.28 708 2.63 539 2.78 667 2.96
   4  0.771  0.648  0.277- 254 3.10 542 3.29 513 3.33 557 3.36 532 3.39 342 3.48 584 3.50
   5  0.927  0.339  0.811- 296 0.49 601 1.31 615 1.69 697 2.42  81 2.94 762 3.31 374 3.57
   6  0.975  0.872  0.090- 396 1.57 390 2.78 187 3.16 426 3.57
   7  0.911  0.179  0.402- 271 3.08 300 3.45
   8  0.706  0.757  0.405- 178 2.91 542 2.92 611 3.14 584 3.49
   9  0.076  0.327  0.536- 695 1.27 263 1.40 468 2.24 119 2.46 281 2.65 700 2.89 638 3.02 581 3.09
                           363 3.14  24 3.18 662 3.28  80 3.32 161 3.35
  10  0.468  0.934  0.764-
  11  0.343  0.509  0.138-  29 2.31 634 2.60 499 2.94 643 2.94 316 3.00 327 3.31 323 3.44 647 3.50

  12  0.327  0.259  0.417- 345 2.39 348 3.04 356 3.28
  13  0.277  0.884  0.555- 676 1.65 346 2.24 504 2.66
  14  0.402  0.858  0.029- 384 1.89 405 1.98 668 3.17
  15  0.797  0.699  0.079- 368 1.31 399 1.56 354 2.34 332 2.43 666 2.55  55 2.76  95 3.06 527 3.42

  16  0.974  0.707  0.514- 317 0.65 175 2.06 500 2.29 752 2.85 259 2.93  98 2.99 433 3.05 641 3.07
                           148 3.07 652 3.48
  17  0.531  0.527  0.001- 756 2.20 260 2.25 391 2.53 358 3.04 702 3.07 437 3.22 776 3.29 736 3.44
                           323 3.54
  18  0.762  0.035  0.680- 252 1.31 245 2.09 547 2.47 579 2.59 417 2.60 331 2.95 540 3.12 471 3.14
                           480 3.30 305 3.44 645 3.55
  19  0.093  0.391  0.795- 246 2.78 616 2.96  43 3.35
  20  0.253  0.104  0.702- 467 1.23 531 3.48
  21  0.455  0.825  0.231- 115 0.64 249 1.38 590 1.63 723 2.09 315 2.18 709 2.74 443 2.84 653 3.43

  22  0.572  0.358  0.875-  78 0.96 442 2.58 409 2.65   1 3.00 335 3.02 174 3.08 131 3.12
  23  0.570  0.134  0.058- 512 1.68 197 2.43 216 2.56 655 3.39
  24  0.013  0.234  0.543- 152 0.62  80 0.83 581 2.18 161 2.71 628 2.84   9 3.18 344 3.47 281 3.54

  25  0.449  0.298  0.044- 771 1.97 247 2.26 558 2.61 555 2.83 203 3.03 485 3.07 335 3.14 367 3.19
                           164 3.25 569 3.37
  26  0.148  0.735  0.844- 636 1.61 477 1.84 204 2.96 250 3.10
  27  0.155  0.158  0.386- 181 1.92 338 2.71  97 2.77 559 2.97
  28  0.634  0.433  0.582- 517 2.72 385 3.18 537 3.36 220 3.44 361 3.49 206 3.50 591 3.54
  29  0.314  0.464  0.199- 749 2.17  11 2.31 643 2.61 383 2.70 720 2.71 101 2.87 634 3.09 648 3.39

  30  0.992  0.471  0.468- 183 2.05 773 2.23 700 2.86 568 3.02 638 3.04 119 3.15 640 3.21 743 3.49
                           468 3.54
  31  0.786  0.609  0.913- 687 1.78 536 2.27 332 2.93  92 3.19  50 3.32 666 3.44
  32  0.448  0.907  0.474- 278 1.26 198 2.66  34 2.67 376 3.04 681 3.08 321 3.19
  33  0.380  0.440  0.593- 410 1.11  76 1.24  86 1.26 240 1.71 243 1.90 318 1.98 539 2.38 519 2.44
                           165 3.03 572 3.17 575 3.48
  34  0.364  0.942  0.496- 278 1.82  32 2.67 504 3.49 272 3.52
  35  0.793  0.420  0.100- 397 1.39 522 1.54 646 1.94 608 2.20 373 2.31  60 2.77 739 2.79 169 2.86

  36  0.735  0.008  0.895- 357 1.73 694 2.05 328 2.85 307 3.07  64 3.10 533 3.31 691 3.33 352 3.47

  37  0.150  0.969  0.621- 675 1.59 531 2.43 151 3.17 261 3.24 475 3.30 334 3.41
  38  0.829  0.413  0.228- 138 2.18 607 2.22 355 2.36 397 2.60 274 2.62 373 3.03 285 3.45 522 3.50
                           450 3.58
  39  0.099  0.771  0.124-  40 2.03 379 2.89 225 3.21 426 3.49
  40  0.085  0.722  0.074-  39 2.03  94 2.26 619 2.52 230 2.52
  41  0.824  0.805  0.551- 587 0.85 370 1.13 451 2.18 213 2.38 121 2.44 162 2.75 191 3.20 746 3.40

  42  0.016  0.527  0.112- 511 0.78 635 1.94 133 2.47 486 2.58 413 3.22 525 3.38
  43  0.143  0.497  0.779-  68 2.62 716 2.83  65 2.96  49 3.00  19 3.35 495 3.40
  44  0.941  0.746  0.294- 389 0.81 649 2.54 415 2.99 283 3.48 761 3.51
  45  0.467  0.271  0.695- 713 1.80 612 3.09
  46  0.207  0.382  0.133- 101 2.57 378 3.05 648 3.31
  47  0.733  0.022  0.113- 329 1.97 737 2.97
  48  0.928  0.615  0.131- 413 1.80 486 2.60 768 3.01 155 3.23 284 3.31
  49  0.175  0.563  0.702-  65 1.13  68 1.15  43 3.00 775 3.24 292 3.25 325 3.37 371 3.46 343 3.50
                           495 3.58
  50  0.721  0.626  0.817- 420 1.65 478 2.60 610 2.97 766 3.02 687 3.04 347 3.20 107 3.24  31 3.32

  51  0.253  0.478  0.548- 650 1.49 677 2.22 163 2.23 508 2.32 318 2.36 371 2.51 292 2.63 243 3.06
                           287 3.45
  52  0.031  0.079  0.458- 124 1.62 144 2.35  97 3.01 767 3.01 338 3.51
  53  0.578  0.899  0.851- 154 2.64 778 2.67 326 2.82 770 3.20 573 3.23 672 3.31 606 3.41
  54  0.782  0.882  0.347- 295 0.69 609 1.45 707 1.61 377 2.41 422 2.68 586 2.86 168 2.88 769 3.02
                           746 3.46 566 3.46 728 3.53
  55  0.729  0.642  0.121- 574 1.83 527 1.97 354 2.26 368 2.33  15 2.76 372 2.84 513 2.94  56 3.13
                            95 3.15 692 3.30 659 3.49
  56  0.771  0.577  0.042-  95 1.74 527 2.38 354 2.51 739 2.52 332 2.83 368 3.03  55 3.13 536 3.38
                           639 3.51
  57  0.615  0.802  0.322- 498 0.95 611 1.59 698 2.78 342 3.51
  58  0.785  0.429  0.779- 170 1.50 242 2.11  81 2.12 408 2.64 670 2.74 727 2.96 308 3.06 777 3.14
                           222 3.18 762 3.57
  59  0.426  0.043  0.315- 424 1.08 597 1.35 311 1.59 613 1.66  99 2.29 445 2.67 160 2.81 369 2.84
                           660 2.89 763 3.07 294 3.30 112 3.31 376 3.38
  60  0.888  0.442  0.113- 169 1.96 386 1.98 397 2.00 133 2.12 373 2.21  35 2.77 739 2.95 522 3.13
                           460 3.20 525 3.28 413 3.30 322 3.47 588 3.56
  61  0.723  0.334  0.464- 279 0.87 526 1.12  84 1.53 393 2.27 220 2.78 199 2.98  85 3.27
  62  0.044  0.122  0.753- 719 2.76 334 3.49
  63  0.507  0.221  0.485- 530 1.24  88 1.91   2 2.38 491 2.98 166 3.00 400 3.22 269 3.23 430 3.28

  64  0.751  0.904  0.927- 395 1.78 418 2.27 694 2.88 158 2.89 328 2.96  36 3.10 683 3.25
  65  0.185  0.526  0.688-  49 1.13  68 2.12 292 2.26 325 2.65 371 2.83 163 2.90  43 2.96
  66  0.787  0.306  0.887- 453 1.56 622 2.45 222 2.49 308 2.78
  67  0.082  0.622  0.543- 148 1.64  98 2.03 548 2.31 126 2.46 228 2.85 568 3.44
  68  0.161  0.578  0.737-  49 1.15  65 2.12 495 2.46  43 2.62 775 2.73 343 3.30 150 3.33
  69  0.335  0.217  0.620- 506 2.29 421 3.07 356 3.49 612 3.52
  70  0.226  0.592  0.157- 419 1.65 280 2.15 729 2.29 714 2.38 648 2.73 122 3.07 722 3.50 634 3.58

  71  0.957  0.131  0.625- 186 1.09 431 1.40 209 2.46 179 2.74 471 3.44
  72  0.806  0.906  0.640- 580 1.45 547 1.84 121 2.23 554 2.46 417 3.09 252 3.13 587 3.29
  73  0.005  0.531  0.602- 126 1.43 568 1.64
  74  0.407  0.658  0.553- 302 1.55 476 2.15 434 2.35 100 2.39 110 2.67 618 3.40
  75  0.576  0.672  0.246- 176 0.72 532 2.30 557 2.45 342 2.57 659 2.61 130 2.86 372 3.24 254 3.30
                           509 3.42
  76  0.411  0.449  0.624-  33 1.24 410 1.74 519 1.89  86 2.11 240 2.22 539 2.28 241 2.60 243 2.81
                           572 2.88 318 3.18 452 3.25 575 3.49
  77  0.224  0.702  0.373- 137 2.34 589 2.67 312 2.96 529 3.09 620 3.09
  78  0.546  0.371  0.857-  22 0.96 174 2.43 409 2.76 703 2.91 442 3.22 335 3.25   1 3.26
  79  0.710  0.526  0.296- 270 1.43 266 2.82 594 3.50
  80  0.017  0.228  0.514-  24 0.83 152 1.35 581 1.61 339 2.88 628 2.98 338 3.00   9 3.32
  81  0.837  0.375  0.774- 670 1.37 242 1.70 762 1.81 308 1.92  58 2.12   5 2.94 296 3.35 453 3.40
                           600 3.58
  82  0.118  0.900  0.481- 583 1.51 314 1.82 523 2.52
  83  0.524  0.803  0.703- 193 1.07 712 1.83 349 3.24 447 3.28 449 3.47 770 3.50
  84  0.745  0.384  0.464- 279 1.01  61 1.53 220 1.82 526 2.54 293 3.24
  85  0.760  0.274  0.373- 199 2.45 214 2.73  61 3.27 526 3.47
  86  0.389  0.405  0.568- 240 0.66  33 1.26 410 2.00  76 2.11 318 2.18 243 2.44 519 2.59 165 3.02
                           575 3.46 539 3.57
  87  0.370  0.305  0.898-  93 0.67 275 2.34 226 2.91 569 3.10 558 3.13 203 3.14
  88  0.469  0.166  0.479-  63 1.91 430 2.36 166 2.68 530 2.94 760 3.50 614 3.53
  89  0.552  0.176  0.634- 219 2.58 612 2.76 256 3.34 267 3.39
  90  0.491  0.757  0.370- 182 2.40 498 3.37
  91  0.290  0.760  0.773- 234 1.95 490 2.49 636 3.35 343 3.46 742 3.48
  92  0.841  0.539  0.845- 727 1.32 687 1.59 408 1.84 536 2.78 600 2.80 299 3.10 444 3.14 286 3.17
                            31 3.19 715 3.52
  93  0.379  0.311  0.919-  87 0.67 275 2.14 558 2.50 203 2.58 569 2.81 226 3.47
  94  0.073  0.729  0.995-  40 2.26 204 3.54 619 3.57
  95  0.818  0.593  0.077-  56 1.74 368 2.00 739 2.38 639 2.94 513 3.05  15 3.06 332 3.06  55 3.15
                           354 3.15 413 3.17 527 3.42
  96  0.222  0.186  0.044- 324 2.03 177 2.25 194 2.58 231 2.76 412 2.84 481 3.54
  97  0.068  0.119  0.367- 205 2.01 767 2.54 144 2.57  27 2.77  52 3.01 338 3.05 116 3.32
  98  0.042  0.666  0.584- 148 1.48 752 1.87  67 2.03  16 2.99 317 3.00 126 3.02 603 3.04 433 3.21
                           500 3.44
  99  0.458  0.991  0.368- 376 1.17 311 1.63 424 1.84 660 2.04  59 2.29 369 2.34 445 2.48 112 2.71
                           111 2.84 597 3.15 681 3.29
 100  0.363  0.666  0.481- 476 1.67  74 2.39 459 2.46 302 2.56 618 2.64 685 2.81
 101  0.231  0.410  0.217- 383 1.78  46 2.57 277 2.80 549 2.83  29 2.87 648 3.10 749 3.31
 102  0.298  0.618  0.988- 473 1.53 327 2.16 288 2.16 647 3.38 208 3.46
 103  0.170  0.101  0.820- 651 2.62 359 3.09
 104  0.970  0.890  0.207- 106 1.73 187 2.50 415 2.95 740 3.23 196 3.42 501 3.47
 105  0.917  0.579  0.382- 388 0.93 562 1.43 640 2.32 641 2.39 773 3.21 455 3.23 132 3.36 743 3.42

 106  0.997  0.869  0.258- 740 1.56 104 1.73 415 2.06 389 3.32 649 3.42 211 3.55 717 3.55
 107  0.785  0.666  0.731- 478 2.91 766 3.01  50 3.24
 108  0.660  0.611  0.675- 206 2.23 478 2.35 610 2.62 129 3.09 488 3.46
 109  0.954  0.736  0.917- 626 1.76 251 2.55 204 2.94
 110  0.430  0.719  0.621- 742 2.57  74 2.67 598 2.77 654 3.21 449 3.23 193 3.31 476 3.44 349 3.48

 111  0.515  0.069  0.397- 599 1.90 369 2.14 424 2.70  99 2.84 430 2.93 156 3.07 681 3.28 289 3.33
                           376 3.52
 112  0.514  0.968  0.293- 747 1.36 257 1.38 660 1.77 311 1.96 445 2.08 709 2.66 301 2.68  99 2.71
                           376 2.77 577 2.86 590 3.26 698 3.29  59 3.31 552 3.50
 113  0.802  0.818  0.011- 745 1.12 683 1.65 418 2.05 666 3.29 395 3.45
 114  0.904  0.115  0.783- 719 1.44 374 3.07
 115  0.476  0.832  0.233-  21 0.64 590 1.53 249 1.56 709 2.26 723 2.71 315 2.73 653 2.96 747 3.21
                           443 3.26 380 3.41
 116  0.077  0.145  0.253- 205 2.43 454 2.63 585 3.09  97 3.32
 117  0.599  0.506  0.693- 206 2.35 129 2.55 458 2.70 385 2.86 452 3.14 360 3.25 610 3.53
 118  0.528  0.439  0.419- 207 1.41 678 2.34 223 2.72 502 3.24 537 3.26 710 3.30
 119  0.074  0.411  0.513- 468 0.46 638 0.67 700 1.85 695 2.31 662 2.42   9 2.46 263 2.71 363 2.82
                           135 2.94  30 3.15 593 3.23
 120  0.521  0.211  0.232- 726 3.28 472 3.28 763 3.29 758 3.44
 121  0.784  0.832  0.622- 580 1.95  72 2.23 162 2.29 587 2.37  41 2.44 370 2.83 474 3.09 554 3.53
                           451 3.54
 122  0.261  0.677  0.215- 722 2.05 312 2.55 280 2.76 729 2.88 414 2.92  70 3.07 462 3.16 137 3.33
                           545 3.47
 123  0.771  0.255  0.113- 404 2.56 350 2.63 427 3.26 224 3.31 522 3.35
 124  0.047  0.090  0.512-  52 1.62 628 3.08 364 3.29 338 3.54
 125  0.223  0.201  0.902- 336 2.26 651 3.17
 126  0.044  0.559  0.589-  73 1.43 568 1.99  67 2.46  98 3.02
 127  0.746  0.588  0.530- 704 2.98 455 3.44
 128  0.606  0.862  0.068- 306 1.60 494 2.56 380 3.06 653 3.15 353 3.51
 129  0.688  0.512  0.710- 206 2.44 117 2.55 170 2.80 108 3.09 420 3.19 610 3.40 748 3.48
 130  0.613  0.742  0.183- 509 1.01 380 2.51 176 2.53 353 2.54  75 2.86 342 2.93 532 3.02 659 3.06

 131  0.636  0.382  0.961- 772 1.83 442 1.85 776 2.49   1 2.60  22 3.12 409 3.30
 132  0.858  0.659  0.447- 455 1.39 259 2.33 191 2.55 641 2.56 388 3.05 105 3.36
 133  0.957  0.466  0.131- 525 1.81 511 1.98  60 2.12 386 2.35  42 2.47 635 2.53 460 2.62 486 2.70
                           413 2.86 229 3.33 588 3.57
 134  0.041  0.322  0.419- 339 1.91 700 2.15 662 2.33 581 2.35 271 2.97 135 3.28 363 3.34 765 3.55
                           479 3.55
 135  0.115  0.411  0.418- 593 0.52 731 0.96 662 1.13 363 1.86 700 2.37 604 2.45 468 2.75 119 2.94
                           638 3.20 134 3.28
 136  0.604  0.358  0.075- 734 1.48 416 1.85 555 2.54 776 3.12 442 3.17 771 3.18 472 3.52
 137  0.198  0.652  0.312- 620 1.99  77 2.34 147 2.49 729 2.79 312 2.96 122 3.33
 138  0.768  0.420  0.274- 624 2.08  38 2.18 607 2.98 274 3.49 355 3.52
 139  0.651  0.493  0.014- 437 1.36 776 1.57 702 1.87 146 2.24 265 3.45
 140  0.893  0.036  0.476- 735 1.20 179 3.10 190 3.31 566 3.37 290 3.45 300 3.56
 141  0.558  0.044  0.514- 156 0.95 614 1.61 430 2.07 304 2.24 166 2.35 582 2.62 423 2.69 681 2.78
                           321 3.10 198 3.18
 142  0.080  0.550  0.344- 484 2.31 743 2.56 381 3.09 604 3.16 520 3.29 228 3.55 620 3.59
 143  0.421  0.013  0.141- 248 0.77 160 2.77
 144  0.018  0.045  0.384- 210 1.93 767 1.99 237 2.26  52 2.35  97 2.57 205 2.60 202 3.12 717 3.54
                           774 3.55
 145  0.628  0.487  0.131- 265 0.89 608 2.99 260 3.28 646 3.45 776 3.48 574 3.57
 146  0.664  0.519  0.941- 702 1.10 437 2.01 139 2.24 696 3.10 756 3.13 776 3.17 736 3.48
 147  0.145  0.712  0.275- 620 2.05 137 2.49 761 2.83 462 3.01 173 3.23 729 3.36 465 3.40 520 3.45

 148  0.075  0.680  0.545-  98 1.48  67 1.64 317 2.90 548 3.06  16 3.07 752 3.20 228 3.46 500 3.56

 149  0.276  0.273  0.163- 231 2.18 485 3.57
 150  0.085  0.624  0.814- 495 0.94 684 2.83  68 3.33 204 3.58
 151  0.212  0.908  0.691- 571 1.19 236 2.09 212 2.61  37 3.17
 152  0.011  0.223  0.561-  24 0.62  80 1.35 161 2.43 628 2.62 581 2.79 431 3.20 344 3.52
 153  0.580  0.897  0.612- 172 1.54 686 2.68 582 2.87 321 3.00 351 3.04
 154  0.580  0.861  0.936- 326 1.18  53 2.64 306 3.20 668 3.54
 155  0.956  0.630  0.240- 486 2.87  48 3.23 562 3.31 761 3.58
 156  0.563  0.071  0.494- 141 0.95 430 1.45 166 1.63 614 1.97 304 2.71 423 2.90 111 3.07 599 3.10
                           681 3.15 582 3.46
 157  0.120  0.833  0.595- 261 3.57
 158  0.733  0.819  0.873- 395 1.49 672 2.24 418 2.83  64 2.89 470 3.32 606 3.44
 159  0.787  0.154  0.198- 757 1.74 550 2.15 404 2.41 439 2.76 602 3.01 507 3.35 546 3.41
 160  0.387  0.004  0.232- 597 1.75 248 2.56 445 2.69 613 2.71 143 2.77  59 2.81 311 2.89 578 3.19
                           382 3.23 482 3.40 660 3.44 294 3.53
 161  0.023  0.276  0.628- 617 1.51 432 1.83 281 1.94 344 2.41 152 2.43 592 2.49  24 2.71 440 2.93
                           263 3.07   9 3.35 616 3.35
 162  0.792  0.751  0.625- 121 2.29 213 2.40  41 2.75 370 3.00 587 3.32
 163  0.192  0.479  0.597- 292 0.72 677 1.26 650 1.76  51 2.23 371 2.46  65 2.90 508 3.57
 164  0.447  0.264  0.154- 485 1.53 750 2.12 472 3.06  25 3.25
 165  0.311  0.369  0.632- 575 1.79 506 2.50 572 2.55 519 3.01  86 3.02  33 3.03 741 3.07 650 3.16
                           240 3.39 318 3.45 508 3.49
 166  0.552  0.127  0.503- 430 0.96 156 1.63 141 2.35 614 2.39  88 2.68 599 2.99  63 3.00 304 3.40

 167  0.051  0.491  0.944- 487 2.26 201 2.48 688 2.48 544 2.91 229 3.30 215 3.48
 168  0.745  0.872  0.253- 586 0.52 422 2.24  54 2.88 501 3.04 295 3.38
 169  0.880  0.420  0.048- 322 1.83 310 1.88  60 1.96 386 2.04 373 2.78  35 2.86 229 2.89 397 3.04
                           739 3.07 522 3.18 576 3.47 544 3.59
 170  0.768  0.472  0.753-  58 1.50 727 2.68 242 2.70 129 2.80 408 2.83 748 3.21 420 3.37 777 3.51

 171  0.941  0.247  0.993- 565 1.98 567 2.75
 172  0.567  0.933  0.574- 582 1.40 153 1.54 321 1.77 198 2.43 686 2.57 514 2.93 304 3.47
 173  0.095  0.630  0.212- 729 2.58 230 2.84 761 2.86 714 2.93 147 3.23 620 3.59
 174  0.552  0.405  0.779-  78 2.43 235 2.81 671 2.91 385 2.94  22 3.08 713 3.50 241 3.54
 175  0.932  0.767  0.516- 317 1.98  16 2.06 500 2.07 652 2.15 370 2.65 191 2.82 433 2.98 489 3.04
                           213 3.10 259 3.22
 176  0.570  0.697  0.247-  75 0.72 130 2.53 342 2.62 532 2.63 557 2.91 509 2.92 659 3.06 254 3.53

 177  0.236  0.153  0.115- 231 1.66  96 2.25 398 2.34 324 2.40 194 2.46 333 2.54 232 2.64 481 2.68

 178  0.620  0.797  0.444- 551 2.48   8 2.91 182 3.19
 179  0.935  0.051  0.576- 186 1.93 431 2.58  71 2.74 471 2.98 140 3.10 735 3.41
 180  0.977  0.927  0.811- 233 1.22 497 1.55 401 2.23 258 2.80 365 3.14
 181  0.222  0.144  0.383- 559 1.17  27 1.92 524 2.90 348 3.30
 182  0.517  0.828  0.409-  90 2.40 178 3.19 498 3.30
 183  0.943  0.446  0.516- 632 1.76  30 2.05 553 2.92 568 3.17 673 3.18
 184  0.415  0.105  0.732- 657 2.12
 185  0.054  0.207  0.880- 764 0.74 436 0.95 456 2.03 425 2.13 625 2.24 651 3.21 565 3.36
 186  0.956  0.114  0.591- 431 1.01  71 1.09 179 1.93 209 3.27 471 3.54
 187  0.895  0.865  0.168- 501 2.15 104 2.50 396 3.09   6 3.16 649 3.39
 188  0.411  1.000  0.915- 521 1.87 303 2.54 658 2.60 627 2.74 699 2.75 725 2.90
 189  0.848  0.205  0.676- 621 1.89 680 1.99 209 2.00 496 2.77 330 2.94 540 3.31
 190  0.930  0.927  0.497- 566 3.09 451 3.18 489 3.24 140 3.31 554 3.54
 191  0.854  0.749  0.457- 652 2.06 283 2.25 132 2.55 259 2.61 175 2.82 489 2.86 213 3.06  41 3.20
                           370 3.44
 192  0.090  0.993  0.916- 435 1.70 291 2.11 689 2.19 362 2.64 258 3.05 679 3.33 744 3.48
 193  0.498  0.776  0.697-  83 1.07 447 2.51 449 2.59 712 2.71 349 2.88 110 3.31
 194  0.159  0.132  0.081- 232 2.00 324 2.01 755 2.12 398 2.43 177 2.46  96 2.58 333 2.89 605 3.13
                           454 3.53
 195  0.216  0.873  0.408- 314 2.39 529 3.00 387 3.33 504 3.38
 196  0.021  0.997  0.230- 774 2.46 202 3.21 664 3.30 210 3.35 205 3.39 104 3.42 237 3.52 717 3.69

 197  0.592  0.090  0.987- 655 1.40  23 2.43 216 2.52 512 2.81 352 3.00 561 3.41 725 3.58 303 3.76

 198  0.536  0.936  0.494- 582 1.43 681 1.49 514 1.80 321 1.93 172 2.43  32 2.66 141 3.18 423 3.38
                           551 3.49 376 3.72
 199  0.690  0.324  0.365-  85 2.45  61 2.98 538 3.10 526 3.55 279 3.67 214 3.67
 200  0.179  0.910  0.223- 560 1.38 211 2.32 387 2.66 379 2.71 244 3.02 482 3.56
 201  0.976  0.520  0.909- 444 1.22 299 1.63 754 2.12 167 2.48 701 2.60 688 3.11 600 3.32 487 3.56
                           544 3.63 576 3.70 229 3.81
 202  0.947  0.995  0.315- 774 1.31 210 1.37 237 1.76 564 3.07 144 3.12 669 3.16 196 3.21 320 3.60
                           566 3.69 717 3.74
 203  0.360  0.340  0.003- 558 0.71 275 2.52  93 2.58  25 3.03  87 3.14 412 3.32 367 3.39
 204  0.047  0.729  0.873- 250 2.50 684 2.76 109 2.94  26 2.96 626 3.08 477 3.09  94 3.54 150 3.58

 205  0.050  0.084  0.307-  97 2.01 116 2.43 144 2.60 210 2.71 767 2.75 774 3.34 493 3.34 196 3.39
                           237 3.62
 206  0.651  0.542  0.638- 108 2.23 117 2.35 129 2.44 591 3.48  28 3.50 711 3.56
 207  0.497  0.402  0.433- 678 1.12 118 1.41 710 2.06 537 3.25 502 3.53
 208  0.290  0.530  0.904- 473 2.42 288 2.54 492 2.55 716 2.83 629 2.88 633 3.18 630 3.31 403 3.37
                           102 3.46
 209  0.915  0.202  0.653- 189 2.00 680 2.23  71 2.46 431 2.71 330 3.15 186 3.27 621 3.44 432 3.76

 210  0.974  0.031  0.333- 202 1.37 774 1.67 237 1.72 144 1.93 205 2.71 196 3.35 767 3.45 717 3.65
                           669 3.70
 211  0.115  0.908  0.275- 387 1.74 560 1.99 200 2.32 717 2.45 106 3.55 740 3.60 493 3.70
 212  0.247  0.979  0.738- 236 1.03 467 2.54 151 2.61 276 2.89 571 2.93 751 3.64 631 3.66 543 3.79

 213  0.842  0.724  0.561- 370 2.37  41 2.38 162 2.40 191 3.06 175 3.10 587 3.21
 214  0.755  0.253  0.278-  85 2.73 757 3.05 441 3.19 404 3.22 550 3.31 199 3.67 538 3.73 285 3.74

 215  0.109  0.590  0.988- 446 1.43 487 1.80 688 1.96 619 2.81 629 3.07 167 3.48
 216  0.656  0.105  0.048- 512 1.70 329 2.29 197 2.52  23 2.56 655 2.61 546 3.37
 217  0.990  0.101  0.078- 753 1.17 674 1.69 503 2.86 585 3.01 755 3.01 664 3.27 567 3.32
 218  0.475  0.552  0.292- 644 1.85 268 2.10 297 3.43 316 3.65 502 3.65
 219  0.605  0.246  0.661- 256 0.96 267 2.57  89 2.58 366 2.83
 220  0.703  0.429  0.483-  84 1.82 279 2.18  61 2.78 704 3.16 537 3.44  28 3.44 526 3.65
 221  0.578  0.983  0.130- 552 2.06 301 2.75 494 3.03 329 3.34 653 3.71 570 3.79
 222  0.762  0.390  0.882- 453 2.30 715 2.32  66 2.49 777 2.94  58 3.18 408 3.20 308 3.37 576 3.74
                           772 3.79
 223  0.562  0.528  0.403- 118 2.72 642 3.02 361 3.03 502 3.54
 224  0.817  0.170  0.047- 427 1.50 262 2.24 567 2.87 464 3.15 123 3.31 350 3.78
 225  0.213  0.777  0.131- 545 2.05 379 2.26 462 2.82 595 2.96  39 3.21 280 3.30
 226  0.332  0.228  0.842-  87 2.91 319 3.13 438 3.14 406 3.45  93 3.47 275 3.56 411 3.63
 227  0.058  0.248  0.093- 585 3.02 565 3.54
 228  0.109  0.617  0.446- 548 1.71 589 2.54  67 2.85 465 3.03 287 3.11 381 3.45 148 3.46 142 3.55
                           620 3.66 520 3.68
 229  0.976  0.441  0.018- 544 1.15 322 2.16 386 2.53 169 2.89 511 3.05 693 3.06 167 3.30 133 3.33
                           310 3.57 460 3.71 576 3.78 201 3.81
 230  0.101  0.643  0.112- 619 1.14  40 2.52 173 2.84 714 3.53 280 3.58 446 3.61 419 3.71
 231  0.252  0.206  0.135- 177 1.66 149 2.18 481 2.50  96 2.76 398 3.24 232 3.50 469 3.55 454 3.69

 232  0.153  0.133  0.151- 398 0.83 454 1.87 194 2.00 755 2.56 177 2.64 585 3.37 333 3.41 231 3.50
                           324 3.61
 233  0.009  0.924  0.840- 180 1.22 497 1.28 258 1.87 435 2.74 291 2.88 401 2.95 689 3.15
 234  0.311  0.820  0.746-  91 1.95 490 2.00 571 2.96 742 3.29
 235  0.638  0.366  0.749- 671 0.31 385 2.49 777 2.57 174 2.81 366 3.03 256 3.43
 236  0.222  0.955  0.747- 212 1.03 151 2.09 276 2.19 571 2.32 751 3.15 467 3.41
 237  0.995  0.976  0.350- 210 1.72 202 1.76 717 2.25 144 2.26 774 2.68 767 3.15 740 3.46 196 3.52
                           205 3.62
 238  0.564  0.642  0.897- 736 1.65 556 1.86 696 1.96 663 2.25 756 2.47 596 2.49 563 2.68 461 3.37
                           470 3.72
 239  0.846  0.316  0.502- 673 2.60 479 2.70 279 3.47 526 3.64 553 3.71
 240  0.409  0.394  0.568-  86 0.66  33 1.71  76 2.22 410 2.42 519 2.47 318 2.81 243 2.95 165 3.39
                           269 3.40 575 3.54 241 3.71 506 3.77 678 3.81
 241  0.475  0.414  0.680- 519 2.01  76 2.60 517 2.84 452 3.07 385 3.37 174 3.54 572 3.59 240 3.71
                           713 3.77
 242  0.849  0.423  0.740-  81 1.70  58 2.11 670 2.52 170 2.70 762 2.88 727 3.29 600 3.34 308 3.51
                           286 3.71
 243  0.360  0.483  0.545- 410 1.10 318 1.22  33 1.90 539 2.28  86 2.44  76 2.81 240 2.95  51 3.06
                           434 3.54 650 3.59 371 3.79 508 3.79
 244  0.225  0.006  0.222- 482 1.56 382 2.73 200 3.02 560 3.56 524 3.56
 245  0.814  0.022  0.731- 417 1.73 252 1.86  18 2.09 471 2.72 547 2.94 365 3.19 331 3.41 724 3.73

 246  0.135  0.373  0.882- 463 1.63 340 2.39 337 2.40  19 2.78 456 3.26 336 3.37
 247  0.502  0.284  0.985- 335 1.43 771 1.61 569 1.97  25 2.26 409 2.75 442 2.97 555 3.04 738 3.31
                           759 3.32   1 3.54 558 3.79
 248  0.436  0.027  0.159- 143 0.77 160 2.56 758 3.75 578 3.80
 249  0.438  0.870  0.219- 590 1.36  21 1.38 115 1.56 315 1.69 709 2.32 723 2.50 445 3.12 747 3.22
                           660 3.46 653 3.55
 250  0.060  0.791  0.810- 477 1.89 204 2.50  26 3.10 684 3.34 626 3.63 636 3.70
 251  0.933  0.678  0.983- 109 2.55 701 2.59 639 2.92 284 3.09 754 3.79
 252  0.800  0.013  0.667-  18 1.31 547 1.41 245 1.86 417 2.26 471 2.27  72 3.13 645 3.30 331 3.34
                           580 3.70
 253  0.982  0.492  0.770- 286 1.75 528 2.72 600 3.05 444 3.66
 254  0.670  0.669  0.315- 557 1.50 342 1.70 584 1.89 532 2.05 611 2.85   4 3.10  75 3.30 542 3.34
                           176 3.53 642 3.55 594 3.75 372 3.77
 255  0.585  0.474  0.271- 270 2.50 733 3.21
 256  0.602  0.271  0.683- 219 0.96 366 2.14 267 2.72 713 3.34  89 3.34 235 3.43 671 3.52 385 3.81

 257  0.542  0.944  0.262- 747 0.67 112 1.38 709 1.76 301 1.91 552 2.27 698 2.62 660 2.76 577 2.83
                           445 2.97 590 3.15 311 3.23 570 3.55 653 3.64
 258  0.074  0.928  0.831- 435 1.63 233 1.87 180 2.80 192 3.05 497 3.06 362 3.27 291 3.42 689 3.64

 259  0.925  0.701  0.423- 641 1.94 132 2.33 191 2.61 652 2.62 283 2.79  16 2.93 317 3.21 175 3.22
                           455 3.60 388 3.75 489 3.80
 260  0.543  0.545  0.078-  17 2.25 358 2.66 692 3.19 145 3.28 541 3.37 499 3.48 437 3.51
 261  0.044  0.934  0.592- 429 2.55 428 3.00  37 3.24 157 3.57 675 3.78
 262  0.880  0.180  0.095- 567 1.28 224 2.24 350 2.61 427 3.58
 263  0.091  0.345  0.580- 695 0.99   9 1.40 281 2.23 468 2.54 119 2.71 617 2.76 638 3.01 161 3.07
                           440 3.17 344 3.62 616 3.67 592 3.67
 264  0.695  0.145  0.866- 307 1.43 407 2.14 357 2.82 622 2.88 561 3.10 691 3.55 352 3.74
 265  0.655  0.472  0.134- 145 0.89 608 2.13 646 2.63 139 3.45 776 3.60 574 3.66 734 3.67
 266  0.725  0.548  0.392- 594 1.12 642 2.36  79 2.82 584 2.82 270 3.52
 267  0.620  0.191  0.732- 366 2.44 219 2.57 256 2.72 779 3.37  89 3.39 579 3.60 305 3.69
 268  0.427  0.536  0.347- 644 1.01 502 1.92 218 2.10 665 3.01
 269  0.495  0.310  0.555-   2 1.04 530 2.37 678 3.22  63 3.23 240 3.40 517 3.49
 270  0.666  0.501  0.292-  79 1.43 255 2.50 624 3.30 266 3.52
 271  0.982  0.253  0.366- 339 1.71 765 2.12 134 2.97   7 3.08 721 3.14 479 3.14 581 3.16
 272  0.411  0.971  0.607- 448 3.17 321 3.22  34 3.52
 273  0.113  0.320  0.277- 549 1.73 721 2.13 277 2.72
 274  0.834  0.504  0.211- 607 2.59  38 2.62 513 2.72 397 2.93 413 3.39 138 3.49 646 3.61
 275  0.339  0.264  0.963- 412 1.84  93 2.14  87 2.34 367 2.47 203 2.52 558 2.85 438 3.39 226 3.56
                           569 3.65
 276  0.213  0.928  0.819- 751 1.32 236 2.19 362 2.68 212 2.89 631 3.02 571 3.26 535 3.38
 277  0.138  0.409  0.250- 549 1.91 273 2.72 101 2.80 383 3.06 484 3.14 604 3.37
 278  0.406  0.896  0.480-  32 1.26  34 1.82 504 3.35 376 3.76
 279  0.731  0.357  0.483-  61 0.87  84 1.01 526 1.63 220 2.18 393 2.79 239 3.47 199 3.67
 280  0.226  0.661  0.125-  70 2.15 122 2.76 722 2.81 419 3.10 225 3.30 545 3.31 729 3.34 230 3.58

 281  0.018  0.342  0.607- 440 1.32 344 1.51 617 1.91 161 1.94 592 2.13 263 2.23   9 2.65 432 2.92
                           616 2.93 695 3.10  24 3.54 632 3.70 468 3.77
 282  0.369  0.737  0.070- 545 3.06 722 3.56
 283  0.887  0.788  0.397- 652 1.58 489 1.76 377 1.97 191 2.25 259 2.79 649 3.48  44 3.48 295 3.56
                           415 3.60
 284  0.952  0.719  0.082- 768 1.89 396 2.87 251 3.09  48 3.31 399 3.48
 285  0.876  0.308  0.268- 450 0.41 441 1.43 355 1.53 765 3.29  38 3.45 214 3.74
 286  0.928  0.522  0.776- 253 1.75 528 2.41 600 2.53 727 2.82 444 3.15  92 3.17 242 3.71
 287  0.196  0.574  0.499- 685 2.79 228 3.11 589 3.43 618 3.43  51 3.45
 288  0.348  0.588  0.938- 705 1.97 102 2.16 473 2.32 208 2.54 327 3.09 391 3.22 394 3.32 647 3.37
                           323 3.75
 289  0.468  0.162  0.340- 760 1.09 763 1.43 599 3.17 111 3.33 424 3.38 726 3.39 613 3.51 369 3.66

 290  0.776  0.030  0.443- 769 2.14 728 2.19 534 2.83 735 2.86 669 3.30 140 3.45 707 3.46 300 3.48
                           645 3.50 566 3.81
 291  0.018  0.978  0.926- 689 0.99 744 1.98 192 2.11 435 2.65 497 2.66 233 2.88 309 3.26 258 3.42
                           679 3.76
 292  0.197  0.483  0.622- 163 0.72 677 1.82 650 1.87 371 2.18  65 2.26  51 2.63 325 3.03  49 3.25

 293  0.835  0.442  0.424- 553 1.15 640 2.84  84 3.24
 294  0.311  0.064  0.311- 524 1.88 613 2.33 597 2.49 482 2.88 578 3.09  59 3.30 382 3.43 559 3.53
                           160 3.53 469 3.57 424 3.64
 295  0.796  0.867  0.361-  54 0.69 609 1.73 377 1.80 707 2.00 746 3.07 422 3.11 769 3.13 566 3.24
                           168 3.38 586 3.42 283 3.56 542 3.68 649 3.81
 296  0.944  0.343  0.813-   5 0.49 601 1.11 615 1.34 697 2.05  81 3.35 600 3.63 374 3.66 762 3.74

 297  0.465  0.465  0.209- 541 1.97 316 2.73 643 2.85 510 3.08 218 3.43 720 3.53 644 3.66 358 3.68

 298  0.340  0.093  0.002- 658 2.14 438 2.92 521 3.07 627 3.15 682 3.50 481 3.73 324 3.74 406 3.75

 299  0.924  0.544  0.917- 444 1.08 201 1.63 701 1.80 754 1.98 536 2.78 639 2.82  92 3.10 600 3.27
                           576 3.37 687 3.79
 300  0.822  0.140  0.475- 735 2.40 645 3.40   7 3.45 290 3.48 140 3.56
 301  0.577  0.990  0.226- 257 1.91 552 1.93 570 2.15 747 2.50 112 2.68 221 2.75 709 3.07 758 3.19
                           737 3.41 698 3.62 577 3.65
 302  0.443  0.641  0.515-  74 1.55 100 2.56 476 2.83 434 3.14 623 3.71
 303  0.471  0.037  0.970- 725 1.41 521 1.50 699 2.54 188 2.54 573 3.31 627 3.58 197 3.76
 304  0.609  0.049  0.575- 480 2.07 141 2.24 686 2.53 156 2.71 423 3.02 614 3.03 582 3.22 166 3.40
                           172 3.47 305 3.51 430 3.68
 305  0.684  0.121  0.643- 579 1.85 480 1.89 540 2.44  18 3.44 304 3.51 779 3.55 267 3.69
 306  0.645  0.857  0.028- 128 1.60 154 3.20 683 3.24 326 3.47
 307  0.698  0.098  0.847- 264 1.43 357 2.27  36 3.07 352 3.10 407 3.12 691 3.36
 308  0.798  0.322  0.790- 670 1.40 762 1.88 453 1.89  81 1.92  66 2.78  58 3.06 222 3.37 621 3.46
                           242 3.51 622 3.69
 309  0.952  0.071  0.943- 689 2.65 291 3.26 425 3.44 533 3.57
 310  0.873  0.368  0.007- 322 1.46 169 1.88 576 2.95 386 3.03 373 3.55 229 3.57 522 3.60 544 3.69

 311  0.452  0.993  0.311- 445 1.29 660 1.35  59 1.59  99 1.63 112 1.96 424 2.03 597 2.12 376 2.33
                           160 2.89 747 2.97 613 3.10 257 3.23 369 3.44 590 3.67
 312  0.295  0.690  0.297- 122 2.55 137 2.96  77 2.96 414 3.34 722 3.75
 313  0.852  0.958  0.072- 690 0.96 503 2.78 464 3.08 390 3.44
 314  0.143  0.912  0.423-  82 1.82 583 2.02 195 2.39 387 3.11 523 3.19 717 3.38 493 3.78
 315  0.385  0.846  0.206- 723 1.47 249 1.69  21 2.18 590 2.70 115 2.73 443 3.42
 316  0.436  0.548  0.170- 499 2.62 297 2.73 634 2.98  11 3.00 541 3.04 358 3.34 218 3.65 323 3.68
                           414 3.69 647 3.74
 317  0.988  0.725  0.514-  16 0.65 500 1.84 175 1.98 433 2.81 148 2.90  98 3.00 752 3.07 259 3.21
                           652 3.40 641 3.54
 318  0.332  0.451  0.544- 243 1.22 410 1.85  33 1.98  86 2.18  51 2.36 508 2.60 650 2.76 240 2.81
                           539 3.12  76 3.18 165 3.45 371 3.68
 319  0.408  0.162  0.887- 406 0.56 438 1.76 699 2.39 738 2.92 226 3.13 569 3.47 759 3.54 718 3.54
                           658 3.73
 320  0.850  0.076  0.299- 507 0.76 602 1.22 439 1.34 669 2.01 341 2.47 550 2.61 564 2.75 774 3.35
                           728 3.50 202 3.60 518 3.67
 321  0.511  0.954  0.555- 172 1.77 582 1.78 198 1.93 681 2.96 153 3.00 141 3.10 614 3.10  32 3.19
                           272 3.22 514 3.41 448 3.67 686 3.69
 322  0.920  0.389  0.007- 310 1.46 169 1.83 229 2.16 544 2.26 386 2.32 576 2.86 693 3.23  60 3.47

 323  0.413  0.537  0.042- 499 1.08 647 1.32 391 2.37 358 2.56 327 2.98  11 3.44  17 3.54 316 3.68
                           705 3.69 288 3.75
 324  0.216  0.115  0.042- 194 2.01  96 2.03 333 2.13 177 2.40 605 2.58 232 3.61 398 3.65 298 3.74
                           755 3.75
 325  0.274  0.497  0.695- 392 1.54 371 2.31 730 2.52  65 2.65 292 3.03 572 3.11 650 3.24  49 3.37
                           633 3.77
 326  0.599  0.829  0.918- 154 1.18  53 2.82 470 3.41 306 3.47 672 3.51 606 3.71
 327  0.311  0.562  0.038- 473 1.85 102 2.16 647 2.40 323 2.98 288 3.09 492 3.23  11 3.31 499 3.32

 328  0.828  0.973  0.913-  36 2.85 533 2.92  64 2.96 365 3.19 401 3.38 691 3.67 724 3.71 690 3.72

 329  0.671  0.052  0.107-  47 1.97 216 2.29 546 2.71 737 3.21 221 3.34 512 3.59 655 3.66
 330  0.864  0.300  0.637- 189 2.94 762 3.01 209 3.15 344 3.21 680 3.23 673 3.62 670 3.65
 331  0.716  0.952  0.724- 417 2.22  18 2.95 580 3.34 252 3.34 245 3.41 547 3.50
 332  0.794  0.665  0.000- 666 1.15 354 2.06  15 2.43  56 2.83 368 2.87  31 2.93  95 3.06 527 3.25
                           639 3.42 399 3.74
 333  0.235  0.065  0.095- 605 1.40 324 2.13 177 2.54 194 2.89 398 3.05 382 3.24 232 3.41
 334  0.128  0.075  0.675- 531 1.52 364 3.08  37 3.41  62 3.49
 335  0.514  0.325  0.958- 409 1.39 247 1.43 771 1.83 442 1.98   1 2.33 569 2.41 555 2.86  22 3.02
                            25 3.14  78 3.25 703 3.64
 336  0.175  0.260  0.878- 125 2.26 337 2.26 456 2.34 340 2.34 651 2.68 625 2.81 246 3.37 463 3.50
                           436 3.72
 337  0.153  0.310  0.936- 340 0.19 463 1.81 336 2.26 246 2.40 456 2.47 625 2.75 378 3.16
 338  0.087  0.189  0.446- 637 2.36  27 2.71  80 3.00  97 3.05 339 3.10 581 3.18 628 3.46  52 3.51
                           124 3.54
 339  0.011  0.262  0.418- 581 1.55 271 1.71 134 1.91 479 2.88  80 2.88 765 2.95 338 3.10
 340  0.146  0.310  0.938- 337 0.19 463 1.87 336 2.34 456 2.36 246 2.39 625 2.65 378 3.17
 341  0.776  0.033  0.279- 439 2.43 320 2.47 507 2.48 518 2.51 728 2.69 669 2.78 602 2.86 564 2.96
                           737 3.08 422 3.45 757 3.61 707 3.67 550 3.71
 342  0.660  0.701  0.265- 532 1.14 557 1.69 254 1.70 611 2.22  75 2.57 176 2.62 130 2.93 372 3.12
                           542 3.22 659 3.44 509 3.48   4 3.48  57 3.51 584 3.58
 343  0.219  0.677  0.718- 775 1.11 656 3.28  68 3.30  91 3.46  49 3.50
 344  0.966  0.333  0.599- 281 1.51 440 1.73 161 2.41 592 2.71 617 2.94 632 3.08 330 3.21 432 3.28
                            24 3.47 152 3.52 263 3.62
 345  0.265  0.310  0.444-  12 2.39 356 2.87 508 3.41 483 3.52 421 3.62
 346  0.312  0.815  0.543- 504 1.89 676 2.02  13 2.24 598 3.18 476 3.45
 347  0.664  0.717  0.782- 766 1.10 478 2.12 470 2.42 606 2.82  50 3.20 610 3.35 712 3.72
 348  0.309  0.162  0.459- 559 2.40 421 2.96  12 3.04 181 3.30
 349  0.420  0.833  0.666- 598 1.66 490 2.85 193 2.88 742 3.01  83 3.24 110 3.48
 350  0.862  0.263  0.133- 262 2.61 123 2.63 567 3.13 373 3.16 522 3.46 588 3.54 224 3.78
 351  0.606  0.793  0.601- 488 2.64 474 2.65 505 2.71 153 3.04 712 3.75
 352  0.617  0.042  0.896- 573 2.21 694 2.63 655 2.67 357 2.82 197 3.00 307 3.10  36 3.47 778 3.67
                           725 3.72 264 3.74 561 3.78
 353  0.627  0.830  0.186- 509 1.73 380 1.77 653 2.36 130 2.54 494 2.95 552 3.51 128 3.51
 354  0.735  0.658  0.043- 527 1.37 332 2.06  55 2.26  15 2.34  56 2.51 368 2.61 666 2.66  95 3.15
                           574 3.56
 355  0.877  0.362  0.273- 450 1.51 285 1.53  38 2.36 607 2.67 441 2.87 138 3.52 765 3.58 732 3.72

 356  0.323  0.297  0.527- 506 1.82 421 2.67 345 2.87  12 3.28 508 3.42  69 3.49
 357  0.713  0.061  0.917-  36 1.73 307 2.27 694 2.73 352 2.82 264 2.82 691 3.07 533 3.28 655 3.48

 358  0.474  0.481  0.080- 541 2.02 499 2.38 323 2.56 260 2.66  17 3.04 316 3.34 555 3.52 647 3.68
                           297 3.68 391 3.80
 359  0.250  0.071  0.888- 543 1.95 631 2.57 682 2.72 658 2.95 103 3.09 751 3.62
 360  0.525  0.591  0.713- 458 0.90 654 2.67 449 2.96 117 3.25 708 3.38 610 3.39 667 3.56 563 3.69
                           452 3.77
 361  0.596  0.520  0.504- 591 1.36 711 1.72 223 3.03  28 3.49 642 3.65
 362  0.166  0.940  0.901- 751 1.74 535 2.10 435 2.10 192 2.64 276 2.68 258 3.27 679 3.55
 363  0.143  0.367  0.457- 662 1.56 135 1.86 593 2.20 468 2.40 731 2.55 700 2.80 119 2.82 695 2.87
                             9 3.14 638 3.22 134 3.34
 364  0.141  0.115  0.575- 628 2.23 531 2.60 334 3.08 124 3.29 637 3.57 675 3.62
 365  0.874  0.968  0.810- 401 1.37 724 1.92 180 3.14 245 3.19 328 3.19 417 3.20 497 3.41
 366  0.595  0.269  0.758- 256 2.14 267 2.44 713 2.78 219 2.83 671 2.96 235 3.03 718 3.63
 367  0.363  0.225  0.038- 412 2.08 275 2.47 481 2.66 485 3.04  25 3.19 203 3.39 558 3.61 738 3.66

 368  0.807  0.659  0.101-  15 1.31  95 2.00 399 2.13  55 2.33 354 2.61 332 2.87  56 3.03 513 3.14
                           527 3.31 666 3.41 706 3.54
 369  0.442  0.058  0.413- 424 1.76 111 2.14  99 2.34  59 2.84 376 3.21 311 3.44 430 3.56 289 3.66
                           760 3.72 599 3.73 681 3.79
 370  0.862  0.805  0.565-  41 1.13 587 1.44 213 2.37 451 2.52 175 2.65 121 2.83 162 3.00 554 3.09
                           191 3.44 652 3.67 500 3.78
 371  0.260  0.527  0.621- 292 2.18 325 2.31 650 2.31 163 2.46  51 2.51  65 2.83 730 3.34 539 3.41
                           677 3.44  49 3.46 318 3.68 392 3.79 243 3.79
 372  0.662  0.619  0.192- 659 1.43 574 1.70 532 2.01 557 2.40 692 2.42  55 2.84 342 3.12  75 3.24
                           254 3.77 513 3.78
 373  0.853  0.374  0.131- 522 1.45 397 1.86  60 2.21  35 2.31 386 2.76 169 2.78  38 3.03 350 3.16
                           588 3.18 460 3.54 310 3.55
 374  0.940  0.213  0.809- 680 2.82 425 2.82 114 3.07 719 3.19 601 3.39 436 3.46   5 3.57 296 3.66
                           621 3.69 697 3.73
 375  0.934  0.827  0.704- 428 3.15 429 3.17 554 3.56 433 3.63
 376  0.472  0.954  0.381-  99 1.17 660 1.99 311 2.33 445 2.67 681 2.77 112 2.77 424 3.00  32 3.04
                           369 3.21  59 3.38 111 3.52 747 3.65 577 3.67 198 3.72 278 3.76
 377  0.854  0.844  0.371- 295 1.80 283 1.97 489 2.36  54 2.41 649 2.92 566 2.96 652 3.11 415 3.14
                           746 3.28 707 3.36 609 3.38
 378  0.174  0.331  0.044-  46 3.05 337 3.16 340 3.17 463 3.44 661 3.79
 379  0.168  0.829  0.173- 225 2.26 462 2.57 200 2.71  39 2.89 560 2.92 595 3.80
 380  0.572  0.817  0.161- 653 1.33 509 1.63 353 1.77 494 1.99 130 2.51 128 3.06 115 3.41 709 3.47
                           552 3.47
 381  0.046  0.654  0.349- 520 0.42 465 1.19 620 2.48 142 3.09 228 3.45 761 3.45 548 3.64
 382  0.297  0.061  0.191- 578 2.20 482 2.70 244 2.73 160 3.23 333 3.24 524 3.40 294 3.43 469 3.54

 383  0.225  0.471  0.231- 101 1.78 648 2.35  29 2.70 277 3.06 714 3.38 484 3.39
 384  0.441  0.910  0.045-  14 1.89 405 2.98 627 3.38 668 3.51
 385  0.594  0.406  0.684- 235 2.49 517 2.61 671 2.80 117 2.86 174 2.94  28 3.18 241 3.37 256 3.81
                           452 3.81
 386  0.937  0.399  0.087- 460 1.85  60 1.98 169 2.04 588 2.16 322 2.32 133 2.35 229 2.53 373 2.76
                           525 3.00 310 3.03 544 3.27 511 3.60 397 3.66
 387  0.160  0.919  0.315- 211 1.74 200 2.66 717 2.84 493 2.93 314 3.11 560 3.12 195 3.33
 388  0.908  0.570  0.413- 105 0.93 640 2.15 641 2.27 562 2.29 455 2.69 132 3.05 773 3.15 259 3.75
                           743 3.79
 389  0.963  0.759  0.281-  44 0.81 649 2.68 415 2.77 761 2.94 740 3.20 106 3.32
 390  0.973  0.966  0.061- 503 2.24 744 2.40   6 2.78 674 3.26 664 3.38 313 3.44 753 3.58
 391  0.452  0.556  0.970- 705 1.94 323 2.37  17 2.53 647 2.83 499 3.20 288 3.22 756 3.29 358 3.80

 392  0.298  0.469  0.735- 325 1.54 572 2.30 403 2.44 730 2.84 633 3.45 716 3.58 630 3.64 371 3.79

 393  0.703  0.263  0.497- 526 1.19  61 2.27 400 2.53 279 2.79 491 3.22
 394  0.407  0.673  0.882- 402 1.68 705 2.71 596 2.90 461 2.99 288 3.32 663 3.52
 395  0.767  0.850  0.899- 158 1.49 418 1.59  64 1.78 672 3.31 113 3.45 745 3.55 683 3.71
 396  0.968  0.818  0.101-   6 1.57 284 2.87 187 3.09 768 3.18
 397  0.823  0.432  0.138-  35 1.39 373 1.86 522 1.96  60 2.00 646 2.34  38 2.60 274 2.93 739 2.94
                           608 2.94 169 3.04 386 3.66
 398  0.177  0.124  0.165- 232 0.83 454 2.15 177 2.34 194 2.43 333 3.05 755 3.18 231 3.24 324 3.65
                           605 3.71
 399  0.832  0.729  0.109-  15 1.56 368 2.13 706 2.32 768 3.26 284 3.48 666 3.61 332 3.74
 400  0.620  0.235  0.478- 491 1.05 393 2.53  63 3.22 526 3.36 530 3.47
 401  0.917  0.972  0.832- 365 1.37 180 2.23 497 2.28 233 2.95 724 2.95 328 3.38 689 3.70
 402  0.364  0.714  0.875- 394 1.68 461 3.81
 403  0.319  0.454  0.817- 392 2.44 716 2.91 208 3.37 633 3.37 630 3.50 572 3.62
 404  0.726  0.210  0.177- 159 2.41 757 2.54 123 2.56 546 2.73 214 3.22
 405  0.396  0.867  0.959- 668 1.85  14 1.98 384 2.98 627 3.60
 406  0.402  0.146  0.898- 319 0.56 438 1.48 699 2.08 738 2.85 658 3.20 226 3.45 759 3.73 298 3.75
                           569 3.81
 407  0.728  0.203  0.830- 622 1.48 264 2.14 496 2.93 307 3.12 453 3.40
 408  0.796  0.492  0.847- 727 1.77  92 1.84 715 2.46 687 2.55  58 2.64 170 2.83 600 3.16 222 3.20
                           536 3.25 420 3.31 576 3.65
 409  0.520  0.373  0.951-   1 1.16 335 1.39 442 1.70 771 2.42  22 2.65 555 2.74 247 2.75  78 2.76
                           703 2.79 131 3.30 569 3.60
 410  0.384  0.475  0.575- 243 1.10  33 1.11 539 1.72  76 1.74 318 1.85  86 2.00 240 2.42 434 3.37
                           519 3.41
 411  0.239  0.234  0.754- 457 2.43 741 2.69 651 3.39 226 3.63
 412  0.298  0.241  0.007- 275 1.84 367 2.08  96 2.84 203 3.32 481 3.53
 413  0.908  0.555  0.133-  48 1.80 486 2.07 133 2.86  95 3.17  42 3.22 511 3.22 739 3.29  60 3.30
                           274 3.39 513 3.68
 414  0.359  0.647  0.208- 722 1.93 634 2.23 122 2.92 443 3.07 312 3.34 316 3.69
 415  0.939  0.852  0.299- 649 1.82 740 1.86 106 2.06 389 2.77 104 2.95  44 2.99 377 3.14 501 3.36
                           283 3.60
 416  0.653  0.320  0.095- 136 1.85 734 2.53 472 3.78 772 3.79
 417  0.793  0.965  0.731- 245 1.73 331 2.22 252 2.26 547 2.56  18 2.60 724 2.76  72 3.09 365 3.20
                           580 3.61
 418  0.800  0.843  0.943- 395 1.59 745 1.97 113 2.05  64 2.27 683 2.72 158 2.83
 419  0.198  0.555  0.122-  70 1.65 648 1.90 714 2.02 280 3.10 729 3.31 230 3.71
 420  0.720  0.569  0.802-  50 1.65 610 2.86 687 3.02 129 3.19 478 3.24 408 3.31 170 3.37 727 3.47
                           563 3.62
 421  0.268  0.220  0.535- 356 2.67 348 2.96 506 3.05  69 3.07 345 3.62 637 3.66
 422  0.809  0.917  0.264- 501 1.88 168 2.24 586 2.44  54 2.68 564 2.94 707 3.03 295 3.11 341 3.45
                           649 3.63 609 3.77
 423  0.636  0.999  0.485- 534 2.29 514 2.59 582 2.64 141 2.69 156 2.90 304 3.02 681 3.13 198 3.38
                           551 3.45 515 3.49
 424  0.433  0.048  0.352-  59 1.08 369 1.76  99 1.84 311 2.03 597 2.24 613 2.34 111 2.70 376 3.00
                           660 3.20 445 3.22 763 3.25 289 3.38 294 3.64 760 3.69
 425  0.986  0.175  0.889- 764 2.01 185 2.13 436 2.53 374 2.82 565 3.01 309 3.44
 426  0.088  0.857  0.036- 679 2.07  39 3.49   6 3.57 595 3.66 744 3.77
 427  0.782  0.195  0.016- 224 1.50 123 3.26 262 3.58
 428  0.970  0.926  0.667- 429 2.38 554 2.87 261 3.00 375 3.15
 429  0.996  0.863  0.618- 428 2.38 261 2.55 433 2.89 500 3.05 375 3.17 554 3.21
 430  0.527  0.107  0.493- 166 0.96 156 1.45 614 1.85 141 2.07  88 2.36 599 2.85 111 2.93  63 3.28
                           369 3.56 304 3.68
 431  0.935  0.142  0.582- 186 1.01  71 1.40 179 2.58 209 2.71 152 3.20 471 3.80
 432  0.014  0.283  0.692- 617 1.54 592 1.78 161 1.83 616 2.56 281 2.92 440 3.23 344 3.28 209 3.76

 433  0.985  0.761  0.607- 500 1.43 752 2.55 603 2.67 317 2.81 429 2.89 175 2.98  16 3.05  98 3.21
                           375 3.63
 434  0.391  0.591  0.600-   3 1.88 539 2.00  74 2.35 654 3.00 302 3.14 730 3.32 410 3.37 243 3.54
                           618 3.74
 435  0.093  0.942  0.884- 258 1.63 192 1.70 362 2.10 291 2.65 233 2.74 689 3.03 751 3.30 497 3.53
                           679 3.61
 436  0.047  0.236  0.865- 185 0.95 764 1.62 456 1.73 425 2.53 625 2.64 697 2.85 651 3.38 374 3.46
                           336 3.72 601 3.73 565 3.75
 437  0.644  0.540  0.006- 139 1.36 702 1.70 146 2.01 776 2.68 756 2.90 736 3.21  17 3.22 696 3.26
                           527 3.28 260 3.51
 438  0.355  0.153  0.920- 406 1.48 319 1.76 658 2.75 298 2.92 226 3.14 699 3.23 275 3.39 738 3.46

 439  0.834  0.094  0.258- 507 0.62 602 0.88 320 1.34 550 1.84 341 2.43 159 2.76 564 2.86 757 3.02
                           669 3.23 518 3.46
 440  0.996  0.376  0.630- 281 1.32 344 1.73 592 1.80 617 2.50 616 2.64 632 2.91 161 2.93 263 3.17
                           432 3.23
 441  0.868  0.261  0.286- 285 1.43 450 1.59 355 2.87 765 3.16 214 3.19 550 3.30
 442  0.576  0.356  0.966-   1 1.50 409 1.70 131 1.85 335 1.98  22 2.58 771 2.62 555 2.87 772 2.88
                           247 2.97 136 3.17 776 3.20  78 3.22
 443  0.426  0.733  0.204- 723 2.00  21 2.84 414 3.07 115 3.26 315 3.42 722 3.66
 444  0.944  0.538  0.885- 299 1.08 201 1.22 754 1.62 701 2.51 600 2.78  92 3.14 286 3.15 536 3.65
                           576 3.66 253 3.66
 445  0.442  0.953  0.291- 660 0.78 311 1.29 112 2.08 590 2.44  99 2.48 747 2.49 597 2.60 376 2.67
                            59 2.67 160 2.69 257 2.97 709 3.08 249 3.12 424 3.22
 446  0.154  0.607  0.002- 215 1.43 629 2.73 619 2.87 487 2.91 688 3.37 230 3.61 473 3.80
 447  0.473  0.710  0.752- 449 1.21 708 2.07 193 2.51 654 3.14  83 3.28 596 3.74 667 3.81
 448  0.490  0.035  0.654- 657 2.30 272 3.17 614 3.43 779 3.57 321 3.67 686 3.68
 449  0.484  0.688  0.717- 447 1.21 708 1.90 654 2.27 193 2.59 360 2.96 110 3.23  83 3.47 667 3.68
                           458 3.76
 450  0.890  0.310  0.268- 285 0.41 355 1.51 441 1.59 765 3.13  38 3.58
 451  0.833  0.873  0.515- 587 1.46 746 1.61  41 2.18 370 2.52 190 3.18 489 3.24 554 3.25 121 3.54
                           566 3.77 652 3.80
 452  0.516  0.496  0.621- 517 2.56 591 2.95 241 3.07 117 3.14  76 3.25 458 3.65 360 3.77 385 3.81

 453  0.757  0.319  0.843-  66 1.56 308 1.89 222 2.30 622 2.49 670 3.21 777 3.35 407 3.40  81 3.40
                           762 3.77
 454  0.138  0.182  0.193- 232 1.87 398 2.15 116 2.63 585 3.13 194 3.53 231 3.69
 455  0.835  0.616  0.452- 132 1.39 388 2.69 641 3.22 105 3.23 127 3.44 594 3.50 259 3.60
 456  0.094  0.265  0.891- 436 1.73 625 1.75 185 2.03 336 2.34 340 2.36 337 2.47 764 2.64 246 3.26
                           651 3.29 697 3.33
 457  0.165  0.205  0.722- 411 2.43 651 2.82
 458  0.533  0.565  0.728- 360 0.90 117 2.70 610 3.20 563 3.30 654 3.34 452 3.65 667 3.69 449 3.76

 459  0.335  0.607  0.423- 665 2.35 100 2.46 685 2.89 618 3.52
 460  0.978  0.377  0.132- 588 1.15 386 1.85 525 1.98 133 2.62  60 3.20 635 3.24 373 3.54 229 3.71

 461  0.485  0.724  0.933- 663 1.22 394 2.99 238 3.37 596 3.65 402 3.81
 462  0.216  0.778  0.231- 379 2.57 225 2.82 147 3.01 122 3.16 545 3.46
 463  0.167  0.372  0.930- 246 1.63 337 1.81 340 1.87 378 3.44 336 3.50
 464  0.835  0.061  0.039- 690 2.63 503 2.80 313 3.08 224 3.15 533 3.43
 465  0.074  0.680  0.367- 520 1.11 381 1.19 620 1.99 228 3.03 147 3.40 548 3.58 589 3.60 761 3.71

 466  0.235  0.425  0.365- 483 1.45 731 3.06 593 3.40
 467  0.259  0.061  0.705-  20 1.23 212 2.54 531 3.36 236 3.41
 468  0.087  0.401  0.510- 119 0.46 638 1.00 700 1.90 695 1.99 662 2.20   9 2.24 363 2.40 263 2.54
                           135 2.75 593 3.07  30 3.54 677 3.57 731 3.65 281 3.77
 469  0.289  0.171  0.249- 524 2.55 578 2.59 382 3.54 231 3.55 294 3.57
 470  0.652  0.734  0.865- 347 2.42 606 3.01 556 3.28 158 3.32 766 3.38 326 3.41 672 3.42 238 3.72
                           696 3.74
 471  0.869  0.053  0.658- 252 2.27 245 2.72 179 2.98 547 2.98  18 3.14  71 3.44 645 3.50 186 3.54
                           431 3.80
 472  0.544  0.308  0.172- 734 2.42 733 2.75 164 3.06 750 3.18 120 3.28 136 3.52 416 3.78
 473  0.281  0.568  0.980- 102 1.53 327 1.85 288 2.32 492 2.36 208 2.42 629 2.82 647 3.74 446 3.80

 474  0.686  0.835  0.576- 351 2.65 515 2.75 580 3.06 121 3.09
 475  0.242  0.012  0.564- 675 2.30  37 3.30 531 3.33
 476  0.374  0.714  0.513- 100 1.67  74 2.15 302 2.83 618 3.18 110 3.44 346 3.45 685 3.70
 477  0.124  0.794  0.828-  26 1.84 636 1.89 250 1.89 204 3.09
 478  0.683  0.658  0.739- 766 1.47 347 2.12 610 2.21 108 2.35  50 2.60 107 2.91 420 3.24
 479  0.920  0.300  0.445- 765 2.04 239 2.70 581 2.85 339 2.88 271 3.14 134 3.55
 480  0.665  0.060  0.620- 305 1.89 304 2.07 686 2.74 579 2.99  18 3.30 779 3.43
 481  0.329  0.172  0.107- 231 2.50 367 2.66 177 2.68 485 3.31 412 3.53  96 3.54 578 3.71 298 3.73

 482  0.269  0.993  0.252- 244 1.56 382 2.70 294 2.88 524 3.35 160 3.40 200 3.56 597 3.69
 483  0.262  0.429  0.408- 466 1.45 508 3.43 345 3.52 665 3.53 731 3.78
 484  0.135  0.508  0.302- 142 2.31 604 2.91 277 3.14 383 3.39 731 3.41 714 3.74
 485  0.398  0.263  0.132- 164 1.53 750 2.55 367 3.04  25 3.07 481 3.31 149 3.57
 486  0.962  0.547  0.182- 413 2.07  42 2.58  48 2.60 133 2.70 155 2.87 511 2.90 525 3.34 635 3.54

 487  0.093  0.558  0.935- 215 1.80 688 1.93 167 2.26 629 2.88 446 2.91 201 3.56
 488  0.617  0.701  0.604- 351 2.64 623 3.01 108 3.46 505 3.80
 489  0.905  0.833  0.436- 652 1.27 283 1.76 377 2.36 191 2.86 175 3.04 451 3.24 190 3.24 746 3.31
                           566 3.32 259 3.80
 490  0.355  0.775  0.715- 742 1.45 234 2.00  91 2.49 598 2.72 349 2.85
 491  0.603  0.243  0.446- 400 1.05  63 2.98 530 3.14 393 3.22 726 3.70
 492  0.248  0.491  0.974- 473 2.36 208 2.55 629 2.61 661 3.18 327 3.23
 493  0.141  0.017  0.342- 767 1.94 387 2.93 717 3.12 205 3.34 211 3.70 314 3.78
 494  0.550  0.880  0.137- 653 1.00 380 1.99 552 2.16 128 2.56 709 2.80 353 2.95 221 3.03 509 3.58

 495  0.113  0.611  0.801- 150 0.94  68 2.46 775 3.35  43 3.40  49 3.58 684 3.61
 496  0.784  0.181  0.746- 621 1.65 540 2.05 189 2.77 407 2.93 579 3.12 680 3.46
 497  0.971  0.923  0.865- 233 1.28 180 1.55 401 2.28 291 2.66 689 3.02 258 3.06 365 3.41 744 3.52
                           435 3.53 626 3.78
 498  0.583  0.809  0.315-  57 0.95 611 2.41 698 2.61 182 3.30  90 3.37 509 3.78
 499  0.420  0.546  0.078- 323 1.08 647 1.46 358 2.38 316 2.62  11 2.94 391 3.20 327 3.32 260 3.48
                           541 3.72
 500  0.991  0.773  0.558- 433 1.43 317 1.84 175 2.07  16 2.29 429 3.05 752 3.22  98 3.44 148 3.56
                           603 3.75 370 3.78
 501  0.850  0.879  0.227- 422 1.88 187 2.15 649 2.53 168 3.04 415 3.36 564 3.47 104 3.47 586 3.48

 502  0.438  0.510  0.408- 268 1.92 644 2.28 665 2.77 118 3.24 207 3.53 223 3.54 218 3.65
 503  0.923  0.026  0.071- 390 2.24 664 2.42 313 2.78 464 2.80 217 2.86 753 2.96 690 3.07 674 3.34

 504  0.304  0.835  0.480- 346 1.89 676 2.55  13 2.66 529 2.77 278 3.35 195 3.38  34 3.49
 505  0.524  0.784  0.553- 351 2.71 623 3.72 488 3.80
 506  0.326  0.292  0.591- 356 1.82  69 2.29 165 2.50 575 2.96 421 3.05 240 3.77
 507  0.846  0.086  0.275- 439 0.62 320 0.76 602 0.83 550 2.14 341 2.48 564 2.69 669 2.71 159 3.35
                           757 3.51 774 3.54 518 3.64
 508  0.258  0.399  0.525-  51 2.32 650 2.45 318 2.60 677 2.68 345 3.41 356 3.42 483 3.43 165 3.49
                           163 3.57 243 3.79
 509  0.601  0.775  0.187- 130 1.01 380 1.63 353 1.73 653 2.82 176 2.92  75 3.42 342 3.48 494 3.58
                           611 3.71 498 3.78
 510  0.419  0.369  0.233- 750 2.19 720 2.26 749 2.35 643 2.57 297 3.08
 511  0.005  0.506  0.098-  42 0.78 635 1.83 133 1.98 486 2.90 229 3.05 525 3.09 413 3.22 386 3.60

 512  0.625  0.157  0.053-  23 1.68 216 1.70 197 2.81 546 3.51 329 3.59 655 3.62
 513  0.790  0.584  0.181- 274 2.72  55 2.94  95 3.05 574 3.09 368 3.14   4 3.33 413 3.68 372 3.78

 514  0.594  0.919  0.475- 551 1.76 198 1.80 582 1.95 681 2.31 423 2.59 172 2.93 515 3.16 321 3.41
                           577 3.72
 515  0.700  0.895  0.500- 551 2.31 474 2.75 514 3.16 746 3.21 423 3.49 769 3.60 609 3.63
 516  0.269  0.827  0.018- 595 1.74 545 3.68
 517  0.543  0.411  0.607- 452 2.56 385 2.61  28 2.72 241 2.84 269 3.49
 518  0.722  0.098  0.308- 757 2.49 341 2.51 602 3.39 550 3.44 439 3.46 728 3.52 507 3.64 320 3.67
                           737 3.77
 519  0.413  0.390  0.655-  76 1.89 241 2.01 575 2.03 572 2.29  33 2.44 240 2.47  86 2.59 165 3.01
                           410 3.41
 520  0.053  0.663  0.338- 381 0.42 465 1.11 620 2.23 761 3.08 142 3.29 147 3.45 228 3.68
 521  0.420  0.025  0.976- 303 1.50 188 1.87 627 2.15 725 2.55 658 2.66 699 2.90 298 3.07
 522  0.805  0.369  0.114- 373 1.45  35 1.54 397 1.96 608 3.08  60 3.13 646 3.15 169 3.18 123 3.35
                           350 3.46  38 3.50 310 3.60
 523  0.053  0.849  0.447-  82 2.52 314 3.19 583 3.52
 524  0.258  0.101  0.297- 294 1.88 469 2.55 181 2.90 559 3.06 482 3.35 382 3.40 578 3.40 244 3.56
                           613 3.75
 525  0.985  0.431  0.176- 133 1.81 460 1.98 635 2.37 732 2.60 588 2.96 386 3.00 511 3.09  60 3.28
                           486 3.34  42 3.38
 526  0.719  0.300  0.485-  61 1.12 393 1.19 279 1.63  84 2.54 400 3.36  85 3.47 199 3.55 239 3.64
                           220 3.65
 527  0.703  0.625  0.059- 354 1.37  55 1.97  56 2.38 574 2.55 692 3.07 332 3.25 437 3.28 368 3.31
                            95 3.42  15 3.42
 528  0.975  0.583  0.740- 286 2.41 253 2.72 684 3.43
 529  0.283  0.791  0.395- 504 2.77 195 3.00  77 3.09
 530  0.501  0.264  0.485-  63 1.24   2 1.42 269 2.37  88 2.94 491 3.14 678 3.30 400 3.47 710 3.63

 531  0.161  0.052  0.639- 334 1.52  37 2.43 364 2.60 675 2.63 475 3.33 467 3.36  20 3.48
 532  0.657  0.667  0.244- 557 1.08 342 1.14 372 2.01 254 2.05  75 2.30 659 2.48 176 2.63 130 3.02
                           611 3.36   4 3.39 574 3.59 584 3.81
 533  0.828  0.076  0.919- 691 1.22 328 2.92 357 3.28  36 3.31 464 3.43 309 3.57
 534  0.679  0.021  0.420- 423 2.29 290 2.83 728 3.15 769 3.36
 535  0.230  0.939  0.937- 362 2.10 682 2.22 751 2.39 631 3.11 276 3.38
 536  0.829  0.548  0.942-  31 2.27 687 2.52 639 2.55  92 2.78 299 2.78 715 2.93 408 3.25  56 3.38
                           701 3.41 576 3.56 444 3.65 739 3.77
 537  0.594  0.374  0.487- 678 2.92 207 3.25 118 3.26  28 3.36 220 3.44
 538  0.625  0.270  0.295- 726 2.65 199 3.10 733 3.46 214 3.73
 539  0.380  0.522  0.612- 410 1.72 434 2.00  76 2.28 243 2.28  33 2.38 730 2.78   3 2.78 318 3.12
                           371 3.41  86 3.57
 540  0.750  0.144  0.694- 579 1.43 496 2.05 305 2.44  18 3.12 189 3.31 621 3.32
 541  0.494  0.461  0.146- 297 1.97 358 2.02 316 3.04 643 3.30 260 3.37 734 3.71 499 3.72
 542  0.748  0.758  0.310- 611 2.58   8 2.92 342 3.22   4 3.29 254 3.34 295 3.68 586 3.79
 543  0.296  0.049  0.842- 631 1.68 359 1.95 658 2.96 682 3.31 751 3.70 212 3.79
 544  0.991  0.419  0.987- 229 1.15 693 2.07 322 2.26 167 2.91 386 3.27 169 3.59 201 3.63 576 3.63
                           310 3.69
 545  0.284  0.763  0.131- 225 2.05 722 2.76 282 3.06 280 3.31 462 3.46 122 3.47 516 3.68 595 3.72

 546  0.675  0.129  0.163- 329 2.71 404 2.73 757 3.09 216 3.37 159 3.41 512 3.51 737 3.64
 547  0.805  0.971  0.641- 252 1.41  72 1.84  18 2.47 580 2.56 417 2.56 245 2.94 471 2.98 554 3.20
                           645 3.44 331 3.50
 548  0.054  0.607  0.468- 228 1.71  67 2.31 148 3.06 641 3.31 568 3.40 465 3.58 381 3.64
 549  0.165  0.348  0.261- 273 1.73 277 1.91 101 2.83
 550  0.820  0.157  0.267- 602 1.39 439 1.84 507 2.14 159 2.15 757 2.21 320 2.61 441 3.30 214 3.31
                           518 3.44 341 3.71
 551  0.637  0.883  0.449- 514 1.76 515 2.31 178 2.48 423 3.45 198 3.49 577 3.57 582 3.59 609 3.75

 552  0.565  0.937  0.185- 301 1.93 221 2.06 709 2.11 494 2.16 257 2.27 653 2.30 747 2.54 570 3.44
                           380 3.47 112 3.50 353 3.51
 553  0.867  0.434  0.448- 293 1.15 640 2.74 183 2.92 673 3.16 773 3.44 239 3.71
 554  0.889  0.900  0.612-  72 2.46 428 2.87 370 3.09 587 3.14 547 3.20 429 3.21 451 3.25 121 3.53
                           190 3.54 375 3.56 580 3.75
 555  0.519  0.370  0.048- 771 1.45   1 2.52 136 2.54 734 2.72 409 2.74  25 2.83 335 2.86 442 2.87
                           247 3.04 358 3.52 776 3.70
 556  0.611  0.657  0.941- 696 1.17 736 1.29 238 1.86 756 2.76 663 2.96 470 3.28
 557  0.653  0.642  0.273- 532 1.08 254 1.50 342 1.69 372 2.40  75 2.45 176 2.91 584 2.99 659 3.00
                             4 3.36 611 3.69
 558  0.384  0.346  0.000- 203 0.71  93 2.50  25 2.61 275 2.85  87 3.13 367 3.61 771 3.63 247 3.79

 559  0.255  0.128  0.402- 181 1.17 348 2.40  27 2.97 524 3.06 294 3.53
 560  0.134  0.920  0.208- 200 1.38 211 1.99 379 2.92 387 3.12 244 3.56
 561  0.595  0.174  0.901- 759 2.11 264 3.10 197 3.41 352 3.78
 562  0.919  0.568  0.333- 105 1.43 388 2.29 640 2.61 743 3.10 155 3.31 773 3.39 641 3.60 607 3.81

 563  0.596  0.594  0.822- 610 1.98 238 2.68 696 3.12 596 3.18 458 3.30 736 3.51 420 3.62 360 3.69
                           756 3.70
 564  0.868  1.000  0.241- 507 2.69 774 2.72 320 2.75 439 2.86 422 2.94 341 2.96 202 3.07 669 3.20
                           664 3.28 501 3.47 602 3.52
 565  0.002  0.212  0.987- 171 1.98 425 3.01 625 3.23 185 3.36 567 3.41 764 3.54 227 3.54 436 3.75

 566  0.871  0.941  0.407- 769 2.66 707 2.84 746 2.85 377 2.96 669 2.97 190 3.09 295 3.24 489 3.32
                           728 3.35 140 3.37  54 3.46 609 3.62 202 3.69 451 3.77 290 3.81
 567  0.915  0.190  0.068- 262 1.28 171 2.75 224 2.87 350 3.13 217 3.32 565 3.41
 568  0.990  0.543  0.547-  73 1.64 126 1.99  30 3.02 183 3.17 548 3.40  67 3.44 632 3.66
 569  0.464  0.261  0.931- 247 1.97 335 2.41 759 2.67 738 2.72  93 2.81  87 3.10  25 3.37 771 3.41
                           319 3.47 409 3.60 275 3.65 406 3.81
 570  0.651  0.003  0.240- 737 1.51 301 2.15 552 3.44 257 3.55 577 3.76 221 3.79
 571  0.230  0.879  0.717- 151 1.19 236 2.32 212 2.93 234 2.96 276 3.26
 572  0.350  0.417  0.698- 575 2.04 519 2.29 392 2.30 165 2.55  76 2.88 325 3.11  33 3.17 241 3.59
                           403 3.62 730 3.79
 573  0.550  0.003  0.890- 725 2.20 352 2.21  53 3.23 778 3.26 303 3.31 655 3.60 694 3.73 699 3.78

 574  0.689  0.596  0.143- 372 1.70  55 1.83 692 2.31 659 2.43 527 2.55 513 3.09 354 3.56 145 3.57
                           532 3.59 265 3.66
 575  0.356  0.350  0.673- 165 1.79 519 2.03 572 2.04 506 2.96 741 3.22  86 3.46  33 3.48  76 3.49
                           240 3.54
 576  0.879  0.434  0.926- 715 2.22 600 2.71 322 2.86 310 2.95 299 3.37 169 3.47 536 3.56 544 3.63
                           408 3.65 444 3.66 201 3.70 222 3.74 229 3.78 615 3.81
 577  0.596  0.944  0.346- 698 1.59 257 2.83 112 2.86 747 3.13 551 3.57 681 3.62 301 3.65 376 3.67
                           514 3.72 570 3.76
 578  0.350  0.110  0.220- 382 2.20 613 2.40 469 2.59 294 3.09 160 3.19 597 3.22 524 3.40 763 3.64
                           481 3.71 248 3.80
 579  0.713  0.110  0.700- 540 1.43 305 1.85  18 2.59 480 2.99 496 3.12 779 3.56 267 3.60
 580  0.757  0.895  0.630-  72 1.45 121 1.95 547 2.56 474 3.06 331 3.34 587 3.42 417 3.61 252 3.70
                           554 3.75
 581  0.011  0.267  0.473- 339 1.55  80 1.61  24 2.18 134 2.35 152 2.79 479 2.85   9 3.09 271 3.16
                           338 3.18 700 3.56
 582  0.568  0.953  0.528- 172 1.40 198 1.43 321 1.78 514 1.95 681 2.36 141 2.62 423 2.64 153 2.87
                           304 3.22 686 3.38 156 3.46 614 3.52 551 3.59
 583  0.115  0.953  0.475-  82 1.51 314 2.02 675 3.23 523 3.52 767 3.56
 584  0.691  0.639  0.371- 254 1.89 594 2.00 642 2.14 266 2.82 557 2.99   8 3.49   4 3.50 342 3.58
                           532 3.81
 585  0.037  0.162  0.152- 753 2.81 217 3.01 227 3.02 755 3.02 116 3.09 454 3.13 232 3.37 674 3.64

 586  0.731  0.881  0.260- 168 0.52 422 2.44  54 2.86 295 3.42 501 3.48 609 3.57 707 3.62 542 3.79

 587  0.824  0.835  0.549-  41 0.85 370 1.44 451 1.46 121 2.37 746 2.83 554 3.14 213 3.21  72 3.29
                           162 3.32 580 3.42
 588  0.960  0.340  0.130- 460 1.15 386 2.16 525 2.96 373 3.18 350 3.54  60 3.56 133 3.57
 589  0.171  0.682  0.449- 228 2.54  77 2.67 685 3.19 287 3.43 465 3.60 620 3.63
 590  0.457  0.873  0.263- 249 1.36 115 1.53  21 1.63 709 2.08 445 2.44 747 2.49 660 2.49 315 2.70
                           257 3.15 112 3.26 723 3.31 311 3.67
 591  0.573  0.535  0.543- 711 1.23 361 1.36 452 2.95 206 3.48  28 3.54
 592  0.012  0.345  0.682- 616 1.40 617 1.51 432 1.78 440 1.80 281 2.13 161 2.49 344 2.71 263 3.67

 593  0.124  0.426  0.411- 135 0.52 731 0.59 662 1.65 363 2.20 604 2.34 700 2.80 468 3.07 119 3.23
                           638 3.40 466 3.40
 594  0.725  0.586  0.403- 266 1.12 584 2.00 642 2.08  79 3.50 455 3.50 254 3.75
 595  0.216  0.839  0.047- 516 1.74 225 2.96 426 3.66 545 3.72 379 3.80
 596  0.491  0.625  0.851- 238 2.49 394 2.90 663 3.11 705 3.12 563 3.18 667 3.41 461 3.65 447 3.74
                           756 3.77
 597  0.389  0.028  0.289-  59 1.35 613 1.48 160 1.75 311 2.12 424 2.24 294 2.49 445 2.60 660 3.11
                            99 3.15 578 3.22 482 3.69 763 3.76
 598  0.384  0.805  0.629- 349 1.66 742 2.22 490 2.72 110 2.77 346 3.18
 599  0.556  0.122  0.397- 111 1.90 430 2.85 726 2.92 166 2.99 156 3.10 289 3.17 369 3.73 760 3.80

 600  0.903  0.462  0.838- 286 2.53 576 2.71 727 2.76 444 2.78  92 2.80 253 3.05 408 3.16 299 3.27
                           615 3.30 201 3.32 242 3.34  81 3.58 296 3.63 715 3.73
 601  0.953  0.326  0.848- 296 1.11 615 1.14 697 1.26   5 1.31 374 3.39 436 3.73
 602  0.838  0.113  0.282- 507 0.83 439 0.88 320 1.22 550 1.39 341 2.86 159 3.01 757 3.04 669 3.13
                           518 3.39 564 3.52
 603  0.956  0.681  0.647- 752 1.33 433 2.67  98 3.04 500 3.75
 604  0.074  0.438  0.346- 731 2.05 593 2.34 135 2.45 743 2.66 484 2.91 662 3.04 142 3.16 732 3.23
                           277 3.37 773 3.49 700 3.58
 605  0.205  0.031  0.076- 333 1.40 324 2.58 194 3.13 755 3.60 398 3.71
 606  0.640  0.813  0.794- 672 1.60 770 1.64 712 2.44 347 2.82 470 3.01  53 3.41 158 3.44 766 3.49
                           326 3.71
 607  0.866  0.455  0.282-  38 2.22 274 2.59 355 2.67 138 2.98 640 3.56 562 3.81
 608  0.720  0.437  0.120- 646 1.08 265 2.13  35 2.20 397 2.94 145 2.99 522 3.08
 609  0.751  0.902  0.383- 707 1.35  54 1.45 295 1.73 769 2.09 746 2.88 728 3.01 377 3.38 586 3.57
                           566 3.62 515 3.63 551 3.75 422 3.77
 610  0.633  0.604  0.764- 563 1.98 478 2.21 108 2.62 420 2.86  50 2.97 458 3.20 766 3.35 347 3.35
                           360 3.39 129 3.40 117 3.53
 611  0.658  0.768  0.305-  57 1.59 342 2.22 498 2.41 542 2.58 254 2.85   8 3.14 532 3.36 557 3.69
                           509 3.71
 612  0.455  0.186  0.628- 657 2.64  89 2.76  45 3.09  69 3.52
 613  0.389  0.081  0.290- 597 1.48  59 1.66 294 2.33 424 2.34 578 2.40 763 2.52 160 2.71 311 3.10
                           289 3.51 760 3.70 524 3.75
 614  0.509  0.063  0.538- 141 1.61 430 1.85 156 1.97 166 2.39 304 3.03 321 3.10 448 3.43 582 3.52
                            88 3.53 681 3.58
 615  0.965  0.364  0.850- 601 1.14 296 1.34 697 1.50   5 1.69 600 3.30 576 3.81
 616  0.053  0.364  0.702- 592 1.40 617 1.91 432 2.56 440 2.64 281 2.93  19 2.96 161 3.35 263 3.67

 617  0.047  0.311  0.660- 161 1.51 592 1.51 432 1.54 281 1.91 616 1.91 440 2.50 263 2.76 344 2.94
                           695 3.73
 618  0.289  0.644  0.533- 685 1.31 100 2.64 476 3.18  74 3.40 287 3.43 459 3.52 434 3.74
 619  0.089  0.633  0.075- 230 1.14  40 2.52 215 2.81 446 2.87 688 3.47  94 3.57
 620  0.131  0.665  0.328- 137 1.99 465 1.99 147 2.05 520 2.23 381 2.48  77 3.09 142 3.59 173 3.59
                           761 3.62 729 3.63 589 3.63 228 3.66
 621  0.830  0.216  0.739- 496 1.65 680 1.88 189 1.89 762 3.01 540 3.32 209 3.44 308 3.46 670 3.60
                           374 3.69
 622  0.739  0.236  0.869- 407 1.48  66 2.45 453 2.49 264 2.88 308 3.69
 623  0.571  0.667  0.514- 711 2.76 488 3.01 302 3.71 505 3.72
 624  0.701  0.398  0.250- 138 2.08 733 3.21 270 3.30
 625  0.104  0.226  0.938- 456 1.75 185 2.24 764 2.51 436 2.64 340 2.65 337 2.75 336 2.81 565 3.23
                           651 3.72
 626  0.961  0.793  0.893- 109 1.76 204 3.08 250 3.63 497 3.78
 627  0.360  0.983  0.996- 521 2.15 682 2.73 188 2.74 658 2.77 298 3.15 384 3.38 303 3.58 405 3.60

 628  0.090  0.174  0.567- 364 2.23 152 2.62 637 2.71  24 2.84  80 2.98 124 3.08 338 3.46
 629  0.195  0.554  0.932- 492 2.61 446 2.73 473 2.82 487 2.88 208 2.88 215 3.07 716 3.34
 630  0.320  0.577  0.801- 633 0.41 656 1.60 667 2.79 730 3.04 208 3.31 403 3.50 392 3.64 716 3.65

 631  0.287  0.993  0.860- 543 1.68 682 2.47 751 2.53 359 2.57 276 3.02 535 3.11 658 3.20 212 3.66

 632  0.929  0.432  0.575- 183 1.76 673 2.56 440 2.91 344 3.08 568 3.66 281 3.70
 633  0.306  0.571  0.801- 630 0.41 656 1.64 730 3.11 667 3.17 208 3.18 716 3.28 403 3.37 392 3.45
                           325 3.77
 634  0.340  0.570  0.206- 414 2.23  11 2.60 316 2.98  29 3.09 722 3.33  70 3.58
 635  0.046  0.469  0.132- 511 1.83  42 1.94 525 2.37 133 2.53 460 3.24 486 3.54
 636  0.187  0.773  0.831-  26 1.61 477 1.89  91 3.35 250 3.70
 637  0.143  0.217  0.501- 338 2.36 628 2.71 364 3.57 421 3.66
 638  0.077  0.433  0.522- 119 0.67 468 1.00 700 2.37 695 2.68 662 2.89 263 3.01   9 3.02  30 3.04
                           135 3.20 363 3.22 593 3.40 677 3.48
 639  0.886  0.587  0.999- 701 1.93 536 2.55 299 2.82 251 2.92  95 2.94 332 3.42 739 3.49  56 3.51

 640  0.912  0.497  0.391- 773 1.63 388 2.15 105 2.32 562 2.61 553 2.74 743 2.84 293 2.84  30 3.21
                           607 3.56
 641  0.945  0.637  0.436- 259 1.94 388 2.27 105 2.39 132 2.56  16 3.07 455 3.22 548 3.31 317 3.54
                           562 3.60
 642  0.652  0.585  0.407- 594 2.08 584 2.14 266 2.36 223 3.02 254 3.55 361 3.65
 643  0.387  0.419  0.165- 749 1.73 510 2.57  29 2.61 750 2.69 297 2.85 720 2.92  11 2.94 541 3.30

 644  0.441  0.509  0.328- 268 1.01 218 1.85 502 2.28 665 3.65 297 3.66
 645  0.792  0.062  0.562- 735 3.06 252 3.30 300 3.40 547 3.44 290 3.50 471 3.50  18 3.55
 646  0.747  0.463  0.127- 608 1.08  35 1.94 397 2.34 265 2.63 739 2.97 522 3.15 145 3.45 274 3.61

 647  0.394  0.578  0.048- 323 1.32 499 1.46 327 2.40 391 2.83 288 3.37 102 3.38  11 3.50 705 3.65
                           358 3.68 316 3.74 473 3.74
 648  0.208  0.497  0.154- 419 1.90 714 2.27 383 2.35  70 2.73 101 3.10  46 3.31  29 3.39
 649  0.889  0.818  0.277- 415 1.82 501 2.53  44 2.54 389 2.68 377 2.92 187 3.39 106 3.42 283 3.48
                           706 3.57 740 3.58 422 3.63 295 3.81
 650  0.247  0.452  0.593-  51 1.49 163 1.76 677 1.78 292 1.87 371 2.31 508 2.45 318 2.76 165 3.16
                           325 3.24 243 3.59
 651  0.148  0.191  0.819- 103 2.62 336 2.68 457 2.82 764 3.12 125 3.17 185 3.21 456 3.29 436 3.38
                           411 3.39 625 3.72
 652  0.913  0.790  0.447- 489 1.27 283 1.58 191 2.06 175 2.15 259 2.62 377 3.11 317 3.40  16 3.48
                           370 3.67 451 3.80
 653  0.552  0.859  0.166- 494 1.00 380 1.33 552 2.30 353 2.36 709 2.37 509 2.82 115 2.96 128 3.15
                            21 3.43 747 3.54 249 3.55 257 3.64 221 3.71
 654  0.442  0.627  0.686-   3 1.62 708 1.66 449 2.27 667 2.64 360 2.67 434 3.00 447 3.14 110 3.21
                           458 3.34 730 3.51
 655  0.615  0.046  0.990- 197 1.40 216 2.61 352 2.67  23 3.39 694 3.46 725 3.48 357 3.48 573 3.60
                           512 3.62 329 3.66
 656  0.305  0.611  0.759- 630 1.60 633 1.64 730 2.65 775 3.06 667 3.07 343 3.28 708 3.74
 657  0.441  0.100  0.662- 184 2.12 448 2.30 612 2.64
 658  0.342  0.058  0.935- 298 2.14 682 2.44 188 2.60 521 2.66 438 2.75 627 2.77 359 2.95 543 2.96
                           406 3.20 631 3.20 699 3.27 319 3.73
 659  0.617  0.634  0.173- 372 1.43 692 1.53 574 2.43 532 2.48  75 2.61 557 3.00 176 3.06 130 3.06
                           342 3.44  55 3.49
 660  0.458  0.946  0.312- 445 0.78 311 1.35 112 1.77 376 1.99  99 2.04 747 2.30 590 2.49 257 2.76
                            59 2.89 597 3.11 709 3.13 424 3.20 160 3.44 249 3.46
 661  0.155  0.463  0.031- 492 3.18 378 3.79
 662  0.095  0.382  0.435- 135 1.13 700 1.53 363 1.56 593 1.65 731 2.03 468 2.20 134 2.33 119 2.42
                           638 2.89 604 3.04   9 3.28 695 3.45
 663  0.521  0.706  0.919- 461 1.22 238 2.25 556 2.96 596 3.11 736 3.23 394 3.52 696 3.77
 664  0.939  0.031  0.155- 503 2.42 753 2.63 217 3.27 564 3.28 196 3.30 390 3.38 774 3.53 674 3.72

 665  0.342  0.526  0.410- 459 2.35 502 2.77 268 3.01 483 3.53 644 3.65
 666  0.797  0.704  0.989- 332 1.15  15 2.55 354 2.66 113 3.29 368 3.41  31 3.44 399 3.61
 667  0.411  0.592  0.767- 708 2.10 654 2.64 630 2.79 730 2.92   3 2.96 656 3.07 633 3.17 596 3.41
                           360 3.56 449 3.68 458 3.69 447 3.81
 668  0.455  0.865  0.930- 405 1.85  14 3.17 384 3.51 154 3.54
 669  0.845  0.025  0.349- 320 2.01 728 2.09 507 2.71 341 2.78 566 2.97 602 3.13 202 3.16 707 3.17
                           564 3.20 439 3.23 290 3.30 769 3.40 774 3.67 210 3.70
 670  0.813  0.342  0.748- 762 0.94  81 1.37 308 1.40 242 2.52  58 2.74 453 3.21 621 3.60 330 3.65

 671  0.642  0.362  0.758- 235 0.31 777 2.39 385 2.80 174 2.91 366 2.96 256 3.52
 672  0.678  0.845  0.823- 606 1.60 158 2.24 770 2.43 395 3.31  53 3.31 470 3.42 326 3.51
 673  0.850  0.394  0.551- 632 2.56 239 2.60 553 3.16 183 3.18 330 3.62 704 3.63
 674  0.035  0.062  0.071- 753 1.46 217 1.69 755 2.04 390 3.26 503 3.34 585 3.64 664 3.72
 675  0.164  0.989  0.571-  37 1.59 475 2.30 531 2.63 583 3.23 364 3.62 261 3.78
 676  0.245  0.836  0.548-  13 1.65 346 2.02 504 2.55
 677  0.188  0.441  0.574- 163 1.26 650 1.78 292 1.82  51 2.22 508 2.68 695 3.43 371 3.44 638 3.48
                           468 3.57
 678  0.494  0.379  0.464- 207 1.12 710 2.17 118 2.34 537 2.92   2 2.99 269 3.22 530 3.30 240 3.81

 679  0.105  0.923  0.010- 426 2.07 744 3.07 192 3.33 362 3.55 435 3.61 291 3.76
 680  0.893  0.231  0.723- 621 1.88 189 1.99 209 2.23 374 2.82 762 3.03 330 3.23 496 3.46 719 3.75

 681  0.534  0.971  0.454- 198 1.49 514 2.31 582 2.36 376 2.77 141 2.78 321 2.96  32 3.08 423 3.13
                           156 3.15 111 3.28  99 3.29 614 3.58 577 3.62 369 3.79
 682  0.278  0.000  0.947- 535 2.22 658 2.44 631 2.47 359 2.72 627 2.73 543 3.31 751 3.50 298 3.50

 683  0.760  0.854  0.030- 113 1.65 745 2.24 418 2.72 306 3.24  64 3.25 395 3.71
 684  0.009  0.686  0.794- 204 2.76 150 2.83 250 3.34 528 3.43 495 3.61
 685  0.267  0.641  0.492- 618 1.31 287 2.79 100 2.81 459 2.89 589 3.19 476 3.70
 686  0.609  0.984  0.637- 304 2.53 172 2.57 153 2.68 480 2.74 582 3.38 779 3.46 448 3.68 321 3.69

 687  0.807  0.580  0.862-  92 1.59  31 1.78 727 2.49 536 2.52 408 2.55 420 3.02  50 3.04 299 3.79

 688  0.043  0.571  0.980- 487 1.93 215 1.96 167 2.48 701 3.03 201 3.11 446 3.37 619 3.47 754 3.49

 689  0.015  0.010  0.911- 291 0.99 192 2.19 309 2.65 744 2.83 497 3.02 435 3.03 233 3.15 258 3.64
                           401 3.70
 690  0.835  0.968  0.044- 313 0.96 464 2.63 503 3.07 328 3.72 745 3.76
 691  0.810  0.099  0.887- 533 1.22 357 3.07  36 3.33 307 3.36 264 3.55 328 3.67
 692  0.614  0.621  0.121- 659 1.53 574 2.31 372 2.42 527 3.07 260 3.19  55 3.30
 693  0.023  0.355  0.971- 544 2.07 229 3.06 322 3.23 697 3.37
 694  0.676  0.972  0.914-  36 2.05 352 2.63 357 2.73  64 2.88 655 3.46 573 3.73
 695  0.112  0.350  0.552- 263 0.99   9 1.27 468 1.99 119 2.31 638 2.68 363 2.87 281 3.10 700 3.38
                           677 3.43 662 3.45 617 3.73
 696  0.623  0.620  0.926- 736 1.10 556 1.17 238 1.96 756 2.24 146 3.10 563 3.12 702 3.17 437 3.26
                           470 3.74 663 3.77
 697  0.995  0.322  0.860- 601 1.26 615 1.50 296 2.05   5 2.42 436 2.85 456 3.33 693 3.37 374 3.73

 698  0.605  0.899  0.313- 577 1.59 498 2.61 257 2.62  57 2.78 747 2.85 112 3.29 709 3.57 301 3.62

 699  0.448  0.088  0.900- 406 2.08 319 2.39 303 2.54 188 2.75 521 2.90 738 3.22 438 3.23 725 3.26
                           658 3.27 759 3.64 573 3.78
 700  0.046  0.387  0.459- 662 1.53 119 1.85 468 1.90 134 2.15 135 2.37 638 2.37 593 2.80 363 2.80
                            30 2.86   9 2.89 731 3.24 695 3.38 581 3.56 604 3.58
 701  0.940  0.590  0.957- 299 1.80 639 1.93 754 2.11 444 2.51 251 2.59 201 2.60 688 3.03 536 3.41

 702  0.628  0.512  0.955- 146 1.10 437 1.70 139 1.87 756 2.43 776 2.46  17 3.07 696 3.17 736 3.19

 703  0.460  0.418  0.888- 409 2.79  78 2.91   1 3.40 335 3.64
 704  0.762  0.487  0.557- 127 2.98 220 3.16 748 3.41 673 3.63
 705  0.416  0.587  0.921- 391 1.94 288 1.97 394 2.71 596 3.12 647 3.65 323 3.69
 706  0.849  0.737  0.189- 399 2.32 768 2.86 368 3.54 649 3.57
 707  0.779  0.936  0.365- 609 1.35  54 1.61 769 1.75 728 1.95 295 2.00 566 2.84 422 3.03 669 3.17
                           746 3.26 377 3.36 290 3.46 586 3.62 341 3.67
 708  0.427  0.657  0.734- 654 1.66 449 1.90 447 2.07 667 2.10   3 2.63 360 3.38 742 3.56 656 3.74

 709  0.513  0.903  0.226- 747 1.37 257 1.76 590 2.08 552 2.11 115 2.26 249 2.32 653 2.37 112 2.66
                            21 2.74 494 2.80 301 3.07 445 3.08 660 3.13 380 3.47 698 3.57
 710  0.452  0.352  0.406- 207 2.06 678 2.17 118 3.30 530 3.63
 711  0.591  0.574  0.532- 591 1.23 361 1.72 623 2.76 206 3.56
 712  0.582  0.807  0.731-  83 1.83 770 1.91 606 2.44 193 2.71 347 3.72 351 3.75
 713  0.503  0.299  0.740-  45 1.80 366 2.78 718 3.29 256 3.34 174 3.50 241 3.77
 714  0.155  0.552  0.179- 419 2.02 729 2.25 648 2.27  70 2.38 173 2.93 383 3.38 230 3.53 484 3.74

 715  0.802  0.450  0.922- 576 2.22 222 2.32 408 2.46 536 2.93  92 3.52 600 3.73
 716  0.226  0.495  0.835- 208 2.83  43 2.83 403 2.91 633 3.28 629 3.34 392 3.58 630 3.65
 717  0.064  0.938  0.338- 237 2.25 211 2.45 387 2.84 740 2.90 767 2.98 493 3.12 314 3.38 144 3.54
                           106 3.55 210 3.65 196 3.69 202 3.74
 718  0.495  0.207  0.811- 759 3.24 713 3.29 319 3.54 366 3.63
 719  0.947  0.115  0.755- 114 1.44  62 2.76 374 3.19 680 3.75
 720  0.364  0.417  0.266- 749 1.93 510 2.26  29 2.71 643 2.92 297 3.53
 721  0.054  0.274  0.284- 273 2.13 271 3.14
 722  0.315  0.678  0.167- 414 1.93 122 2.05 545 2.76 280 2.81 634 3.33  70 3.50 282 3.56 443 3.66
                           312 3.75
 723  0.393  0.795  0.202- 315 1.47 443 2.00  21 2.09 249 2.50 115 2.71 590 3.31
 724  0.840  0.911  0.798- 365 1.92 417 2.76 401 2.95 328 3.71 245 3.73
 725  0.505  0.004  0.954- 303 1.41 573 2.20 521 2.55 188 2.90 699 3.26 655 3.48 197 3.58 352 3.72

 726  0.584  0.193  0.327- 538 2.65 599 2.92 120 3.28 289 3.39 491 3.70
 727  0.832  0.520  0.803-  92 1.32 408 1.77 687 2.49 170 2.68 600 2.76 286 2.82  58 2.96 242 3.29
                           420 3.47
 728  0.777  0.004  0.370- 707 1.95 769 2.01 669 2.09 290 2.19 341 2.69 609 3.01 534 3.15 566 3.35
                           320 3.50 518 3.52  54 3.53
 729  0.183  0.612  0.223- 714 2.25  70 2.29 173 2.58 137 2.79 122 2.88 419 3.31 280 3.34 147 3.36
                           620 3.63
 730  0.344  0.551  0.700-   3 2.28 325 2.52 656 2.65 539 2.78 392 2.84 667 2.92 630 3.04 633 3.11
                           434 3.32 371 3.34 654 3.51 572 3.79
 731  0.130  0.427  0.391- 593 0.59 135 0.96 662 2.03 604 2.05 363 2.55 466 3.06 700 3.24 484 3.41
                           468 3.65 483 3.78
 732  0.998  0.413  0.265- 525 2.60 604 3.23 743 3.45 355 3.72
 733  0.594  0.369  0.230- 472 2.75 734 3.11 624 3.21 255 3.21 538 3.46
 734  0.581  0.366  0.121- 136 1.48 472 2.42 416 2.53 555 2.72 733 3.11 771 3.63 265 3.67 541 3.71

 735  0.863  0.065  0.480- 140 1.20 300 2.40 290 2.86 645 3.06 179 3.41
 736  0.589  0.617  0.944- 696 1.10 556 1.29 756 1.48 238 1.65 702 3.19 437 3.21 663 3.23  17 3.44
                           146 3.48 563 3.51
 737  0.695  0.011  0.210- 570 1.51  47 2.97 341 3.08 329 3.21 301 3.41 546 3.64 518 3.77
 738  0.463  0.174  0.974- 759 2.36 569 2.72 406 2.85 319 2.92 699 3.22 247 3.31 438 3.46 367 3.66

 739  0.822  0.509  0.069-  95 2.38  56 2.52  35 2.79 397 2.94  60 2.95 646 2.97 169 3.07 413 3.29
                           639 3.49 536 3.77
 740  0.003  0.860  0.312- 106 1.56 415 1.86 717 2.90 389 3.20 104 3.23 237 3.46 649 3.58 211 3.60

 741  0.253  0.316  0.707- 411 2.69 165 3.07 575 3.22
 742  0.361  0.745  0.674- 490 1.45 598 2.22 110 2.57 349 3.01 234 3.29  91 3.48 708 3.56
 743  0.004  0.501  0.349- 773 1.78 142 2.56 604 2.66 640 2.84 562 3.10 105 3.42 732 3.45  30 3.49
                           388 3.79
 744  0.001  0.944  0.985- 291 1.98 390 2.40 689 2.83 679 3.07 192 3.48 497 3.52 426 3.77
 745  0.834  0.841  0.004- 113 1.12 418 1.97 683 2.24 395 3.55 690 3.76
 746  0.808  0.890  0.466- 451 1.61 769 2.41 587 2.83 566 2.85 609 2.88 295 3.07 515 3.21 707 3.26
                           377 3.28 489 3.31  41 3.40  54 3.46
 747  0.522  0.931  0.264- 257 0.67 112 1.36 709 1.37 660 2.30 445 2.49 590 2.49 301 2.50 552 2.54
                           698 2.85 311 2.97 577 3.13 115 3.21 249 3.22 653 3.54 376 3.65
 748  0.799  0.533  0.662- 170 3.21 704 3.41 129 3.48
[...]
  19.40118566 23.60342202 16.27958860
   6.85346869  0.32862404 15.96292499
  10.58834033 20.18978354 14.51308183
   3.50718425 22.44850396 23.43281832
  19.32491672 18.62030234 20.91387314
  26.02248928  8.47571100 12.57810316
  18.81945125  1.71075070 17.53436350
   9.30057540  4.86117030  3.02186266
   7.61780347 28.07341561  7.11432059
   7.41444661 12.14784116 11.53914626
   3.81725018 14.35811630  8.53339487
  11.24442852  7.43501428  3.74393153
  27.19614076 15.46442724  5.14972196
   2.62462250 15.79459048 26.45262990
  17.44162020 19.81622085 17.07701287
  25.60969293 23.56420184 12.33113612
  10.02922698 21.90902430 20.21696404
  17.05554158  6.87964020 12.61453827
   7.01837413 13.90093426 27.56043789
   3.99487386  0.49265283  9.65965307
  15.54719017 24.87869799  3.87850810
   3.18338856 17.28887075 22.64424067
  22.16654491  5.12479378 21.09508942
  27.47119447 26.11286561 24.47469515
  16.49716664 22.88521274  8.91836755
  11.88020867 15.44497900  2.21200822
  28.03927498 21.87131467 15.77983403
  24.02789810 24.87513742  6.40811474
  12.39222544 14.41107972 11.55399543
  26.09425356  0.74337600  2.00613604
   8.59717485 23.62235775 13.57258671
  14.81510952 22.16333501 15.63845327
   9.21512183  8.26577249 16.71286410
  23.93140542  2.43670824  7.77320059
   7.28830278 11.28672372 14.85629711
  16.98861238 21.91807407  5.29270008
  11.85950951 10.43431889  6.59029702
   0.12909748 14.30538217  2.78236635
  17.68112219  4.43905444  1.49624684
  22.35819506 16.51408608  5.11986429
  16.79521567 25.98730171 13.42779711
  19.78974588 25.30210860 14.14854784
   7.60256317 23.39256639  0.51982911
  15.37016666 11.61692574 17.16142795
  20.42796381  2.75841345  8.71474095
  11.67703726 11.03325595 18.53581982
   1.49692119 18.75327059  9.57105702
  11.88818960  0.69444519 27.59806660
  22.77143648 10.43705674  3.23507745
   1.50450088 24.00940743 12.63782356
   7.30442648  2.85895898  8.40672504
  27.86944094 12.19415464  4.96691506
  20.33465069  8.49407354 13.71359995
  19.89056620 17.67126320  1.65602386
  27.56395800 16.48743578 20.92776474
   7.99937744 22.37445363 11.17282608
  14.17641955  7.47481439 13.72144938
   4.54994449  1.48100654 18.07759086
  18.59448149 18.85570429  6.89968524
  23.41444229  2.15071659 25.99846051
  19.20820030  0.59682635 11.87129040
   6.50733854 26.57034436 26.51012494
  23.43507739 15.49567997 26.63661943
  16.81285665 10.57776653 13.78162834
  17.69077888  7.63191761  8.33644433
  10.74074333 14.77518803 17.32364443
  21.20347931  4.07015825 19.62637796
  13.96634617 13.03018712  4.11941949
  21.15498009 21.42745778  8.78114921
   8.36281477  1.38272683 23.81009667
  28.03354807 11.85448055 27.90538119
   8.02389679 21.57964668  3.69204370
  19.08196206  3.65349113  4.61832353
  22.78249582 27.45525285 18.12689424
   1.52574289 17.16464460 13.24004471
   4.66299245  9.85645525  7.37015533
  23.19676225  4.43004513  7.54432803
  18.02709050 24.97718695 12.68757033
  15.97366907 26.50725221  5.22739607
  24.51239130 12.26792933 12.66903246
  25.13656926 25.44436938 17.31054013
  14.67008390 10.46034878  1.36072955
  17.28420003 18.57506697 26.61942710
  18.45957112 18.15954625  7.71560439
  10.86031900  9.77814977  0.00790338
   7.20681438  3.62622044 11.37157039
   3.79238017 26.01760698  5.88227043
  16.83925070  4.91025621 25.48834035
  25.98252732 16.07811233  9.41386613
  16.85319625 16.79722523 23.25850569
  24.54281795 28.27996889  6.82060089
   0.04789231  5.99542629 27.91734415
  24.62181126 26.62531734 11.49924836
  25.86686288  5.37793787  1.91207776
  28.01059321 15.35284936 15.48272572
  13.13605326  7.37965018 26.34327737
  18.41624415  0.07328157  6.78231132
   6.49444497 24.86607416 20.27132589
   9.88662565 11.79005825 19.75488201
  15.55242312  0.07903377 25.17485546
  19.48074542 16.87058098  4.03738149
  10.07195040  9.89378724 19.02596070
  24.85904744 12.26682340 26.18882434
  16.86602238 26.68994700  9.77391486
   9.90932425  3.11355291  6.23444275
  20.16512932  3.10678244 19.81000335
  21.42231923 25.31127975 17.81610001
   0.31182599  7.54154802 13.37197108
  16.07001002 26.96367898 14.94767316
   3.25565186 26.95537099 13.42451978
  19.54402639 18.07413313 10.50185500
   1.05161782  4.56998615  4.31259366
  20.67911857 24.90928648  7.34963150
  23.30492792 23.62316697 15.52026339
  27.16617267  9.62621881  3.66856959
   4.84775074 19.28197414 12.69487353
  12.91735495 24.68235436  7.43763075
  16.21617529 15.14456975 15.36141360
   0.34413408  9.74969222 19.30360727
   3.49785125 12.06106585 11.63255716
  20.51592597 16.57219478 11.39216502
   6.10779990 23.72949841  1.33645296
  13.90035432 17.66868719 24.06154814
  11.00307880  0.79740489  8.18398738
  10.87163459 22.77190853 17.78373123
  15.72882285  3.45728238 11.24143441
  25.54072045 13.06592764 23.69583488
  26.94463535  9.22235085 23.97301279
  23.70293915  3.20742238  7.98401575
  27.04770294 19.26995386 18.29442965
   2.08057749 12.40197654  9.79824539
   5.79131416  0.87616555  2.16007656
  18.11298241 22.99875972 22.46638771
  24.50678071 12.87430447  7.97425117
  20.37501388 12.36302611  3.40348277
  21.23859269 25.51733401 10.82584625
  17.89891013 17.08283925 21.59752874
  18.59826459 21.73272234  8.63334696
  12.86709904  5.25217167 17.75847009
  11.00303834  2.27924762  8.19925465
  14.40224574  1.77014066 15.20295494
  27.30263405 10.30017727 24.02903101
   1.50711735 10.28415472 19.86310163
   1.33672270  8.80428109 18.66691338
   8.17675835 18.20295076 15.08503817
   2.51731999 17.90662469  2.12842259
   3.70671080 18.80426490  9.27759357
  23.48199189  6.11129303 20.90721057
  20.89849797  6.68773295 24.57785715
  16.15517700 18.87807921 14.52424906
  19.84101921 11.26519848  7.08169556
   2.93413547  6.40578149 26.53328885
  27.18815647 22.42208294 25.24874057
  10.17678478 27.80799162 28.17219434
   2.53224672  4.92187525 16.05005939
   5.50466164 15.66724462 26.36706842
   9.04880025 16.31008859 22.65617665
   8.12668115 28.08318020 24.33279852
  26.27634143 12.21755879 16.25154155
   8.66438727 16.15479936 22.64705945
   9.61592824 16.12547527  5.84027194
   1.30176442 13.26855621  3.72775599
   5.30313901 21.87501685 23.50951757
   4.05052119  6.14504423 14.16948724
   2.17087964 12.24314024 14.75700082
  25.07247908 16.61154982 28.24228624
  25.80780334 14.06339856 11.06327125
  26.74202027 18.01844534 12.34483216
  18.44157272 16.54084427 11.50200308
  10.93780851 11.84952239  4.65943525
  12.45994363 14.41039188  9.27543565
  22.39246719  1.75490963 15.88262850
  21.13752792 13.10867129  3.58308904
  11.13294505 16.36218883  1.36326510
   5.88750338 14.07138286  4.36722272
  25.15063620 23.12463382  7.84376453
   6.99390873 12.77153359 16.77721054
   4.19504779  5.40496580 23.17603274
  25.81959097 22.34309638 12.62905702
  15.60278017 24.30177844  4.68939998
  12.49042760 17.72258205 19.39928399
  17.39955427  1.29626173 28.01361429
   8.62186953 17.29540772 21.47423066
  12.47595269  2.82120889 18.71998469
   9.67637019  1.63340954 26.44941999
  17.46392937 17.93181839  4.89447643
  12.96594183 26.75477391  8.82567146
   4.39199833 13.09286117  0.86856225
   2.68625805 10.79997820 12.31227456
  14.74764759 19.96328300 25.98736915
  26.54739624  0.89078882  4.38070213
   9.66371265 14.86913841 11.58277667
  22.54343215 19.90918668 27.97427274
  11.62992720 16.74116655 21.69277387
  12.86882875 24.45410052 26.31059164
  23.89550305  0.71572767  9.87253174
  23.00519302  9.67104957 21.14779826
  18.16945918 10.23500812 21.43501386
  19.16683569 23.89576604 23.27853388
  24.05119814 11.13496809 15.58424568
   0.98940570  1.76390630  1.99824615
   4.64737451 27.98353830 16.15064537
   6.91788256 23.64701197 15.49359961
   5.32199383 12.48059221 16.22603765
  13.96520905 10.71229927 13.13171719
   2.96173491 26.11689822  0.27063672
  25.25835680  6.54464356 20.45933455
  15.10735746 27.45399856 12.84677752
   7.87709088  0.01275869 26.78540792
  21.48607899 24.15006327  0.83576189
   0.24961724 19.39256747 22.46503901
   7.56466473 18.14377995 13.92442186
  17.21197045 27.82982706 18.01241665
  22.82650387 16.41469369 24.37584899
   1.21076769 16.14209462 27.72664483
   0.41531842  0.27483791 25.75834655
  23.62964747 27.37077033  1.24180126
  22.90897682  2.80157183 25.09488772
  17.37000427 17.57825691  3.41390822
   0.64370713 10.03199518 27.47683203
  19.11106698 27.48697425 25.86269540
   3.15716984  9.89575634 15.60301957
  17.62693146 17.54530819 26.18500752
  28.14589471  9.10393507 24.33468670
  17.10061511 25.41953646  8.83905055
  12.66487846  2.50218759 25.46163273
   1.30825166 10.93894816 12.97138383
  26.59335317 16.70076627 27.05638856
  17.77054095 14.48492100 27.01519929
  13.00516875 11.82885779 25.10507714
  21.56440469 13.78005036 15.74805867
  11.75866053 16.59209483 26.06063049
  24.00908037 20.84374078  5.34543422
  22.04095405 26.47065526 10.31750805
  12.07124853 18.56917990 20.76654125
  14.50790283 25.52726043  6.39415571
  12.77980112  9.96022753 11.47306000
  16.70734792 16.23004329 15.06027605
  16.46686137 22.82640946 20.67996825
  14.21531604  8.45014641 20.92571472
   4.37573302 15.62369513  5.05875473
  22.69286127 12.71494218 26.07396912
   6.39477611 13.99356292 23.62289723
   1.81898380 26.53913546  9.55819043
  14.01054810  5.85575500 22.93047509
  26.78505726  3.24065432 21.35824254
  10.30721748 11.78636281  7.51426384
   1.53719335  7.74081832  8.03073469
   8.89828542 19.17169101  4.71208510
  11.12200035 22.49274129  5.72479632
  23.74646168 25.76819542 22.55801833
  14.29329108  0.11385718 26.97833934
  16.50442265  5.44909861  9.25221105
  23.52999883 14.69368614 22.72233035
  21.98250143  0.12588758 10.46010601
   5.18261926 17.29981797  6.31989633
   9.73903750 15.57810909 19.78997516
   3.66334675 12.07450396 11.06343309
  28.22060590 11.69165041  7.49052673
  16.79487850 10.42965239  6.51092608
  16.43113433 10.35110415  3.42445504
  24.40676118  1.84890469 13.58177810
  16.65407515 17.45600745 26.69952276
  19.65607631  0.31058518  5.94924683
  13.09325229  4.93127568 27.53599272
  23.24968520 14.40569841  1.95290963
   0.09176549 24.32326321  8.82966698
   7.15460624  8.92412818 19.99883471
  10.21402237 21.07366702 19.05175794
   0.10314851 14.17834819  9.87427156
   0.02789110 26.69214201 27.84615981
  23.57936122 23.78490297  0.12031745
  22.84769193 25.16536104 13.19391919
  14.77802030 26.34004049  7.46647943
  22.60233658 15.06669586 18.72903446
   9.79101636 11.16572686  5.76158883
  12.34183804  9.55383413  4.64527054
   5.83672486 27.00198878 24.25718791
  27.74009811 18.99011564 17.19747868
   0.13770218  2.20868368  3.09402712
  27.30525263 16.71326871 25.06659875
   2.69974504  2.66238607  2.64630958
  16.00021147 16.13600524 26.79495671
  21.09109221  4.29798051  6.87218863
  15.27935875  2.66502952  5.84299631
  14.84992956  5.35703303 26.01953562
  12.44880337  5.05033884 10.17441782
   1.40502083 20.23005570  6.87185820
  23.69637436  9.11338945 20.85390998
  12.67022606  4.16487739  8.36612245
   1.57978526  5.11391652 24.85550036
  26.18893603  8.54044856 10.54776809
  19.52509065 20.00189289 21.35964518
   2.45741078  0.90103893 10.76580216
  26.58068888 20.35433832  4.19313264
  22.03929515 27.07106915 11.96420228
  17.61819189 24.15540412 21.42195508
  14.39585290  9.23956025  0.62943789
  19.07211655  9.31276764 27.23269051
  27.34039763 13.50233972 11.14168462
  26.96919516  0.62860170  7.87710437
   5.89740283 18.67630033 21.25188412
  17.45566016 12.71157043  0.41240523
  19.31766072 11.52285397 23.08308714
  16.89914643 27.41883797 22.35946284
  16.76116102  2.15012991 20.24758879
 


--------------------------------------------------------------------------------------------------------


 use parallel FFT for wavefunctions z direction half grid
 k-point  1 :   0.0000 0.0000 0.0000  plane waves:   95856

 maximum and minimum number of plane-waves per node :      6853     6839

 maximum number of plane-waves:     95856
 maximum index in each direction: 
   IXMAX=   35   IYMAX=   35   IZMAX=   35
   IXMIN=  -35   IYMIN=  -35   IZMIN=    0

 WARNING: aliasing errors must be expected set NGX to 142 to avoid them
 WARNING: aliasing errors must be expected set NGY to 142 to avoid them
 WARNING: aliasing errors must be expected set NGZ to 142 to avoid them
 aliasing errors are usually negligible using standard VASP settings
 and one can safely disregard these warnings

 real space projection operators:
  total allocation   :     136233.70 KBytes
  max/ min on nodes  :      10416.64       8523.45


 parallel 3D FFT for wavefunctions:
    minimum data exchange during FFTs selected (reduces bandwidth)
 parallel 3D FFT for charge:
    minimum data exchange during FFTs selected (reduces bandwidth)


 total amount of memory used by VASP on root node   177749. kBytes
========================================================================

   base      :      30000. kBytes
   nonlr-proj:      12336. kBytes
   fftplans  :       8272. kBytes
   grid      :      14266. kBytes
   one-center:        435. kBytes
   wavefun   :     112440. kBytes
 
 Broyden mixing: mesh for mixing (old mesh)
   NGX = 71   NGY = 71   NGZ = 71
  (NGX  =216   NGY  =216   NGZ  =216)
  gives a total of 357911 points

 initial charge density was supplied:
 charge density of overlapping atoms calculated
 number of electron    6425.0000000 magnetization 
 keeping initial charge density in first step


--------------------------------------------------------------------------------------------------------


 Maximum index for non-local projection operator          165
 Maximum index for augmentation-charges          333 (set IRDMAX)


--------------------------------------------------------------------------------------------------------


 First call to EWALD:  gamma=   0.063
 Maximum number of real-space cells 3x 3x 3
 Maximum number of reciprocal cells 3x 3x 3

 FEWALD executed in parallel
    FEWALD:  cpu time    3.89: real time    3.92


----------------------------------------- Iteration    1(   1)  ---------------------------------------


    POTLOK:  cpu time    0.76: real time    0.76
    SETDIJ:  cpu time    0.19: real time    0.20
    EDDIAG:  cpu time  502.92: real time  503.45
  RMM-DIIS:  cpu time   52.36: real time   52.37
    ORTHCH:  cpu time   45.61: real time   46.02
       DOS:  cpu time    0.01: real time    0.01
    --------------------------------------------
      LOOP:  cpu time  601.91: real time  602.87

 eigenvalue-minimisations  :  3856
 total energy-change (2. order) : 0.9255941E+05  (-0.2550389E+06)
 number of electron    6425.0000000 magnetization 
 augmentation part     6425.0000000 magnetization 

 Free energy of the ion-electron system (eV)
  ---------------------------------------------------
  alpha Z        PSCENC =     33448.59159205
  Ewald energy   TEWEN  =    -50585.76777240
  -1/2 Hartree   DENC   =   -337953.00565488
  -exchange  EXHF       =         0.00000000
  -V(xc)+E(xc)   XCENC  =      3636.89007796
  PAW double counting   =    321918.23506117  -297592.64259706
  entropy T*S    EENTRO =         0.06061398
  eigenvalues    EBANDS =    -74805.91666991
  atomic energy  EATOM  =    494492.96535744
  ---------------------------------------------------
  free energy    TOTEN  =     92559.41000836 eV

  energy without entropy =    92559.34939438  energy(sigma->0) =    92559.38980370


--------------------------------------------------------------------------------------------------------




----------------------------------------- Iteration    1(   2)  ---------------------------------------


    EDDIAG:  cpu time  490.15: real time  490.68
  RMM-DIIS:  cpu time   52.29: real time   52.30
    ORTHCH:  cpu time   45.49: real time   45.91
       DOS:  cpu time    0.01: real time    0.01
    --------------------------------------------
      LOOP:  cpu time  591.32: real time  592.28

 eigenvalue-minimisations  :  3856
 total energy-change (2. order) :-0.4380828E+05  (-0.8941829E+05)
 number of electron    6425.0000000 magnetization 
 augmentation part     6425.0000000 magnetization 

 Free energy of the ion-electron system (eV)
  ---------------------------------------------------
  alpha Z        PSCENC =     33448.59159205
  Ewald energy   TEWEN  =    -50585.76777240
  -1/2 Hartree   DENC   =   -337953.00565488
  -exchange  EXHF       =         0.00000000
  -V(xc)+E(xc)   XCENC  =      3636.89007796
  PAW double counting   =    321918.23506117  -297592.64259706
  entropy T*S    EENTRO =         0.19507769
  eigenvalues    EBANDS =   -118614.33278146
  atomic energy  EATOM  =    494492.96535744
  ---------------------------------------------------
  free energy    TOTEN  =     48751.12836052 eV

  energy without entropy =    48750.93328283  energy(sigma->0) =    48751.06333462


--------------------------------------------------------------------------------------------------------




----------------------------------------- Iteration    1(   3)  ---------------------------------------


    EDDIAG:  cpu time  464.08: real time  464.62
  RMM-DIIS:  cpu time   52.36: real time   52.37
    ORTHCH:  cpu time   45.50: real time   45.88
       DOS:  cpu time    0.01: real time    0.01
    --------------------------------------------
      LOOP:  cpu time  565.63: real time  566.57

 eigenvalue-minimisations  :  3856
 total energy-change (2. order) :-0.3384542E+04  (-0.2008257E+05)
 number of electron    6425.0000000 magnetization 
 augmentation part     6425.0000000 magnetization 

 Free energy of the ion-electron system (eV)
  ---------------------------------------------------
  alpha Z        PSCENC =     33448.59159205
  Ewald energy   TEWEN  =    -50585.76777240
  -1/2 Hartree   DENC   =   -337953.00565488
  -exchange  EXHF       =         0.00000000
  -V(xc)+E(xc)   XCENC  =      3636.89007796
  PAW double counting   =    321918.23506117  -297592.64259706
  entropy T*S    EENTRO =        -0.30766458
  eigenvalues    EBANDS =   -121998.37173805
  atomic energy  EATOM  =    494492.96535744
  ---------------------------------------------------
  free energy    TOTEN  =     45366.58666167 eV

  energy without entropy =    45366.89432624  energy(sigma->0) =    45366.68921653


--------------------------------------------------------------------------------------------------------




----------------------------------------- Iteration    1(   4)  ---------------------------------------


    EDDIAG:  cpu time  443.14: real time  443.63
  RMM-DIIS:  cpu time   52.36: real time   52.37
    ORTHCH:  cpu time   45.72: real time   46.12
       DOS:  cpu time    0.01: real time    0.01
    --------------------------------------------
      LOOP:  cpu time  544.70: real time  545.60

 eigenvalue-minimisations  :  3856
 total energy-change (2. order) :-0.3824792E+04  (-0.5700711E+04)
 number of electron    6425.0000000 magnetization 
 augmentation part     6425.0000000 magnetization 

 Free energy of the ion-electron system (eV)
  ---------------------------------------------------
  alpha Z        PSCENC =     33448.59159205
  Ewald energy   TEWEN  =    -50585.76777240
  -1/2 Hartree   DENC   =   -337953.00565488
  -exchange  EXHF       =         0.00000000
  -V(xc)+E(xc)   XCENC  =      3636.89007796
  PAW double counting   =    321918.23506117  -297592.64259706
  entropy T*S    EENTRO =        -0.15928598
  eigenvalues    EBANDS =   -125823.31213645
  atomic energy  EATOM  =    494492.96535744
  ---------------------------------------------------
  free energy    TOTEN  =     41541.79464186 eV

  energy without entropy =    41541.95392784  energy(sigma->0) =    41541.84773719


--------------------------------------------------------------------------------------------------------




----------------------------------------- Iteration    1(   5)  ---------------------------------------


    EDDIAG:  cpu time  468.37: real time  468.85
  RMM-DIIS:  cpu time   52.38: real time   52.39
