<?xml version="1.0" encoding="ISO-8859-1"?>
<modeling>
 <generator>
  <i name="program" type="string">vasp </i>
  <i name="version" type="string">5.3.2  </i>
  <i name="subversion" type="string">13Sep12 (build Sep 30 2012 21:27:05) gamma-only                       parallel </i>
  <i name="platform" type="string">LinuxIFC </i>
  <i name="date" type="string">2016 04 25 </i>
  <i name="time" type="string">15:49:19 </i>
 </generator>
 <incar>
  <i type="string" name="SYSTEM"> AlSm</i>
  <i type="int" name="ISTART">     0</i>
  <i type="string" name="PREC">normal</i>
  <i type="string" name="ALGO"> Very Fast</i>
  <i type="int" name="MAXMIX">    15</i>
  <i type="int" name="NELMIN">     2</i>
  <i type="int" name="IBRION">     2</i>
  <i name="EDIFF">      0.00001000</i>
  <i type="int" name="NSW">     1</i>
  <i type="int" name="ISYM">     0</i>
  <i type="int" name="NBLOCK">     1</i>
  <i name="ENCUT">    240.43700000</i>
  <i type="string" name="LREAL"> A</i>
  <i type="int" name="ISMEAR">     1</i>
  <i name="SIGMA">      0.20000000</i>
  <i type="int" name="NWRITE">     1</i>
  <i type="logical" name="LWAVE"> F  </i>
  <i type="logical" name="LCHARG"> F  </i>
 </incar>
 <kpoints>
  <generation param="Monkhorst-Pack">
   <v type="int" name="divisions">       1        1        1 </v>
   <v name="usershift">      0.00000000       0.00000000       0.00000000 </v>
   <v name="genvec1">      1.00000000       0.00000000       0.00000000 </v>
   <v name="genvec2">      0.00000000       1.00000000       0.00000000 </v>
   <v name="genvec3">      0.00000000       0.00000000       1.00000000 </v>
   <v name="shift">      0.00000000       0.00000000       0.00000000 </v>
  </generation>
  <varray name="kpointlist" >
   <v>       0.00000000       0.00000000       0.00000000 </v>
  </varray>
  <varray name="weights" >
   <v>       1.00000000 </v>
  </varray>
 </kpoints>
 <parameters>
  <separator name="general" >
   <i type="string" name="SYSTEM">AlSm</i>
   <i type="logical" name="LCOMPAT"> F  </i>
  </separator>
  <separator name="electronic" >
   <i type="string" name="PREC">normal</i>
   <i name="ENMAX">    240.43700000</i>
   <i name="ENAUG">    291.05200000</i>
   <i name="EDIFF">      0.00001000</i>
   <i type="int" name="IALGO">    48</i>
   <i type="int" name="IWAVPR">    11</i>
   <i type="int" name="NBANDS">  3856</i>
   <i name="NELECT">   6425.00000000</i>
   <i type="int" name="TURBO">     0</i>
   <i type="int" name="IRESTART">     0</i>
   <i type="int" name="NREBOOT">     0</i>
   <i type="int" name="NMIN">     0</i>
   <i name="EREF">      0.00000000</i>
   <separator name="electronic smearing" >
    <i type="int" name="ISMEAR">     1</i>
    <i name="SIGMA">      0.20000000</i>
    <i name="KSPACING">      0.50000000</i>
    <i type="logical" name="KGAMMA"> T  </i>
   </separator>
   <separator name="electronic projectors" >
    <i type="logical" name="LREAL"> T  </i>
    <v name="ROPT">     -0.00050000     -0.00050000</v>
    <i type="int" name="LMAXPAW">  -100</i>
    <i type="int" name="LMAXMIX">     2</i>
    <i type="logical" name="NLSPLINE"> F  </i>
   </separator>
   <separator name="electronic startup" >
    <i type="int" name="ISTART">     0</i>
    <i type="int" name="ICHARG">     2</i>
    <i type="int" name="INIWAV">     1</i>
   </separator>
   <separator name="electronic spin" >
    <i type="int" name="ISPIN">     1</i>
    <i type="logical" name="LNONCOLLINEAR"> F  </i>
    <v name="MAGMOM">      1.00000000      1.00000000      1.00000000      1.00000000      1.00000000      1.00000000      1.00000000      1.00000000      1.00000000      1.00000000      1.00000000      1.00000000      1.00000000      1.00000000      1.00000000      1.00000000      1.00000000      1.00000000      1.00000000      1.00000000
      1.00000000      1.00000000      1.00000000      1.00000000      1.00000000      1.00000000      1.00000000      1.00000000      1.00000000      1.00000000      1.00000000      1.00000000      1.00000000      1.00000000      1.00000000      1.00000000      1.00000000      1.00000000      1.00000000      1.00000000
      1.00000000      1.00000000      1.00000000      1.00000000      1.00000000      1.00000000      1.00000000      1.00000000      1.00000000      1.00000000      1.00000000      1.00000000      1.00000000      1.00000000      1.00000000      1.00000000      1.00000000      1.00000000      1.00000000      1.00000000
      1.00000000      1.00000000      1.00000000      1.00000000      1.00000000      1.00000000      1.00000000      1.00000000      1.00000000      1.00000000      1.00000000      1.00000000      1.00000000      1.00000000      1.00000000      1.00000000      1.00000000      1.00000000      1.00000000      1.00000000
      1.00000000      1.00000000      1.00000000      1.00000000      1.00000000      1.00000000      1.00000000      1.00000000      1.00000000      1.00000000      1.00000000      1.00000000      1.00000000      1.00000000      1.00000000      1.00000000      1.00000000      1.00000000      1.00000000      1.00000000
      1.00000000      1.00000000      1.00000000      1.00000000      1.00000000      1.00000000      1.00000000      1.00000000      1.00000000      1.00000000      1.00000000      1.00000000      1.00000000      1.00000000      1.00000000      1.00000000      1.00000000      1.00000000      1.00000000      1.00000000
      1.00000000      1.00000000      1.00000000      1.00000000      1.00000000      1.00000000      1.00000000      1.00000000      1.00000000      1.00000000      1.00000000      1.00000000      1.00000000      1.00000000      1.00000000      1.00000000      1.00000000      1.00000000      1.00000000      1.00000000
      1.00000000      1.00000000      1.00000000      1.00000000      1.00000000      1.00000000      1.00000000      1.00000000      1.00000000      1.00000000      1.00000000      1.00000000      1.00000000      1.00000000      1.00000000      1.00000000      1.00000000      1.00000000      1.00000000      1.00000000
      1.00000000      1.00000000      1.00000000      1.00000000      1.00000000      1.00000000      1.00000000      1.00000000      1.00000000      1.00000000      1.00000000      1.00000000      1.00000000      1.00000000      1.00000000      1.00000000      1.00000000      1.00000000      1.00000000      1.00000000
      1.00000000      1.00000000      1.00000000      1.00000000      1.00000000      1.00000000      1.00000000      1.00000000      1.00000000      1.00000000      1.00000000      1.00000000      1.00000000      1.00000000      1.00000000      1.00000000      1.00000000      1.00000000      1.00000000      1.00000000
      1.00000000      1.00000000      1.00000000      1.00000000      1.00000000      1.00000000      1.00000000      1.00000000      1.00000000      1.00000000      1.00000000      1.00000000      1.00000000      1.00000000      1.00000000      1.00000000      1.00000000      1.00000000      1.00000000      1.00000000
      1.00000000      1.00000000      1.00000000      1.00000000      1.00000000      1.00000000      1.00000000      1.00000000      1.00000000      1.00000000      1.00000000      1.00000000      1.00000000      1.00000000      1.00000000      1.00000000      1.00000000      1.00000000      1.00000000      1.00000000
      1.00000000      1.00000000      1.00000000      1.00000000      1.00000000      1.00000000      1.00000000      1.00000000      1.00000000      1.00000000      1.00000000      1.00000000      1.00000000      1.00000000      1.00000000      1.00000000      1.00000000      1.00000000      1.00000000      1.00000000
      1.00000000      1.00000000      1.00000000      1.00000000      1.00000000      1.00000000      1.00000000      1.00000000      1.00000000      1.00000000      1.00000000      1.00000000      1.00000000      1.00000000      1.00000000      1.00000000      1.00000000      1.00000000      1.00000000      1.00000000
      1.00000000      1.00000000      1.00000000      1.00000000      1.00000000      1.00000000      1.00000000      1.00000000      1.00000000      1.00000000      1.00000000      1.00000000      1.00000000      1.00000000      1.00000000      1.00000000      1.00000000      1.00000000      1.00000000      1.00000000
      1.00000000      1.00000000      1.00000000      1.00000000      1.00000000      1.00000000      1.00000000      1.00000000      1.00000000      1.00000000      1.00000000      1.00000000      1.00000000      1.00000000      1.00000000      1.00000000      1.00000000      1.00000000      1.00000000      1.00000000
      1.00000000      1.00000000      1.00000000      1.00000000      1.00000000      1.00000000      1.00000000      1.00000000      1.00000000      1.00000000      1.00000000      1.00000000      1.00000000      1.00000000      1.00000000      1.00000000      1.00000000      1.00000000      1.00000000      1.00000000
      1.00000000      1.00000000      1.00000000      1.00000000      1.00000000      1.00000000      1.00000000      1.00000000      1.00000000      1.00000000      1.00000000      1.00000000      1.00000000      1.00000000      1.00000000      1.00000000      1.00000000      1.00000000      1.00000000      1.00000000
      1.00000000      1.00000000      1.00000000      1.00000000      1.00000000      1.00000000      1.00000000      1.00000000      1.00000000      1.00000000      1.00000000      1.00000000      1.00000000      1.00000000      1.00000000      1.00000000      1.00000000      1.00000000      1.00000000      1.00000000
      1.00000000      1.00000000      1.00000000      1.00000000      1.00000000      1.00000000      1.00000000      1.00000000      1.00000000      1.00000000      1.00000000      1.00000000      1.00000000      1.00000000      1.00000000      1.00000000      1.00000000      1.00000000      1.00000000      1.00000000
      1.00000000      1.00000000      1.00000000      1.00000000      1.00000000      1.00000000      1.00000000      1.00000000      1.00000000      1.00000000      1.00000000      1.00000000      1.00000000      1.00000000      1.00000000      1.00000000      1.00000000      1.00000000      1.00000000      1.00000000
      1.00000000      1.00000000      1.00000000      1.00000000      1.00000000      1.00000000      1.00000000      1.00000000      1.00000000      1.00000000      1.00000000      1.00000000      1.00000000      1.00000000      1.00000000      1.00000000      1.00000000      1.00000000      1.00000000      1.00000000
      1.00000000      1.00000000      1.00000000      1.00000000      1.00000000      1.00000000      1.00000000      1.00000000      1.00000000      1.00000000      1.00000000      1.00000000      1.00000000      1.00000000      1.00000000      1.00000000      1.00000000      1.00000000      1.00000000      1.00000000
      1.00000000      1.00000000      1.00000000      1.00000000      1.00000000      1.00000000      1.00000000      1.00000000      1.00000000      1.00000000      1.00000000      1.00000000      1.00000000      1.00000000      1.00000000      1.00000000      1.00000000      1.00000000      1.00000000      1.00000000
      1.00000000      1.00000000      1.00000000      1.00000000      1.00000000      1.00000000      1.00000000      1.00000000      1.00000000      1.00000000      1.00000000      1.00000000      1.00000000      1.00000000      1.00000000      1.00000000      1.00000000      1.00000000      1.00000000      1.00000000
      1.00000000      1.00000000      1.00000000      1.00000000      1.00000000      1.00000000      1.00000000      1.00000000      1.00000000      1.00000000      1.00000000      1.00000000      1.00000000      1.00000000      1.00000000      1.00000000      1.00000000      1.00000000      1.00000000      1.00000000
      1.00000000      1.00000000      1.00000000      1.00000000      1.00000000      1.00000000      1.00000000      1.00000000      1.00000000      1.00000000      1.00000000      1.00000000      1.00000000      1.00000000      1.00000000      1.00000000      1.00000000      1.00000000      1.00000000      1.00000000
      1.00000000      1.00000000      1.00000000      1.00000000      1.00000000      1.00000000      1.00000000      1.00000000      1.00000000      1.00000000      1.00000000      1.00000000      1.00000000      1.00000000      1.00000000      1.00000000      1.00000000      1.00000000      1.00000000      1.00000000
      1.00000000      1.00000000      1.00000000      1.00000000      1.00000000      1.00000000      1.00000000      1.00000000      1.00000000      1.00000000      1.00000000      1.00000000      1.00000000      1.00000000      1.00000000      1.00000000      1.00000000      1.00000000      1.00000000      1.00000000
      1.00000000      1.00000000      1.00000000      1.00000000      1.00000000      1.00000000      1.00000000      1.00000000      1.00000000      1.00000000      1.00000000      1.00000000      1.00000000      1.00000000      1.00000000      1.00000000      1.00000000      1.00000000      1.00000000      1.00000000
      1.00000000      1.00000000      1.00000000      1.00000000      1.00000000      1.00000000      1.00000000      1.00000000      1.00000000      1.00000000      1.00000000      1.00000000      1.00000000      1.00000000      1.00000000      1.00000000      1.00000000      1.00000000      1.00000000      1.00000000
      1.00000000      1.00000000      1.00000000      1.00000000      1.00000000      1.00000000      1.00000000      1.00000000      1.00000000      1.00000000      1.00000000      1.00000000      1.00000000      1.00000000      1.00000000      1.00000000      1.00000000      1.00000000      1.00000000      1.00000000
      1.00000000      1.00000000      1.00000000      1.00000000      1.00000000      1.00000000      1.00000000      1.00000000      1.00000000      1.00000000      1.00000000      1.00000000      1.00000000      1.00000000      1.00000000      1.00000000      1.00000000      1.00000000      1.00000000      1.00000000
      1.00000000      1.00000000      1.00000000      1.00000000      1.00000000      1.00000000      1.00000000      1.00000000      1.00000000      1.00000000      1.00000000      1.00000000      1.00000000      1.00000000      1.00000000      1.00000000      1.00000000      1.00000000      1.00000000      1.00000000
      1.00000000      1.00000000      1.00000000      1.00000000      1.00000000      1.00000000      1.00000000      1.00000000      1.00000000      1.00000000      1.00000000      1.00000000      1.00000000      1.00000000      1.00000000      1.00000000      1.00000000      1.00000000      1.00000000      1.00000000
      1.00000000      1.00000000      1.00000000      1.00000000      1.00000000      1.00000000      1.00000000      1.00000000      1.00000000      1.00000000      1.00000000      1.00000000      1.00000000      1.00000000      1.00000000      1.00000000      1.00000000      1.00000000      1.00000000      1.00000000
      1.00000000      1.00000000      1.00000000      1.00000000      1.00000000      1.00000000      1.00000000      1.00000000      1.00000000      1.00000000      1.00000000      1.00000000      1.00000000      1.00000000      1.00000000      1.00000000      1.00000000      1.00000000      1.00000000      1.00000000
      1.00000000      1.00000000      1.00000000      1.00000000      1.00000000      1.00000000      1.00000000      1.00000000      1.00000000      1.00000000      1.00000000      1.00000000      1.00000000      1.00000000      1.00000000      1.00000000      1.00000000      1.00000000      1.00000000      1.00000000
      1.00000000      1.00000000      1.00000000      1.00000000      1.00000000      1.00000000      1.00000000      1.00000000      1.00000000      1.00000000      1.00000000      1.00000000      1.00000000      1.00000000      1.00000000      1.00000000      1.00000000      1.00000000      1.00000000</v>
    <i name="NUPDOWN">     -1.00000000</i>
    <i type="logical" name="LSORBIT"> F  </i>
    <v name="SAXIS">      0.00000000      0.00000000      1.00000000</v>
    <i type="logical" name="LSPIRAL"> F  </i>
    <v name="QSPIRAL">      0.00000000      0.00000000      0.00000000</v>
    <i type="logical" name="LZEROZ"> F  </i>
   </separator>
   <separator name="electronic exchange-correlation" >
    <i type="logical" name="LASPH"> F  </i>
    <i type="logical" name="LMETAGGA"> F  </i>
   </separator>
   <separator name="electronic convergence" >
    <i type="int" name="NELM">    60</i>
    <i type="int" name="NELMDL">   -12</i>
    <i type="int" name="NELMIN">     2</i>
    <i name="ENINI">    240.43700000</i>
    <separator name="electronic convergence detail" >
     <i type="logical" name="LDIAG"> T  </i>
     <i type="logical" name="LSUBROT"> T  </i>
     <i name="WEIMIN">      0.00100000</i>
     <i name="EBREAK">      0.00000000</i>
     <i name="DEPER">      0.30000000</i>
     <i type="int" name="NRMM">     4</i>
     <i name="TIME">      0.40000000</i>
    </separator>
   </separator>
   <separator name="electronic mixer" >
    <i name="AMIX">      0.40000000</i>
    <i name="BMIX">      1.00000000</i>
    <i name="AMIN">      0.10000000</i>
    <i name="AMIX_MAG">      1.60000000</i>
    <i name="BMIX_MAG">      1.00000000</i>
    <separator name="electronic mixer details" >
     <i type="int" name="IMIX">     4</i>
     <i type="int" name="MAXMIX">    15</i>
     <i name="WC">    100.00000000</i>
     <i type="int" name="INIMIX">     1</i>
     <i type="int" name="MIXPRE">     1</i>
     <i type="int" name="MREMOVE">     5</i>
    </separator>
   </separator>
   <separator name="electronic dipolcorrection" >
    <i type="logical" name="LDIPOL"> F  </i>
    <i type="logical" name="LMONO"> F  </i>
    <i type="int" name="IDIPOL">     0</i>
    <i name="EPSILON">      1.00000000</i>
    <v name="DIPOL">   -100.00000000   -100.00000000   -100.00000000</v>
    <i name="EFIELD">      0.00000000</i>
   </separator>
  </separator>
  <separator name="grids" >
   <i type="int" name="NGX">   108</i>
   <i type="int" name="NGY">   108</i>
   <i type="int" name="NGZ">   108</i>
   <i type="int" name="NGXF">   216</i>
   <i type="int" name="NGYF">   216</i>
   <i type="int" name="NGZF">   216</i>
   <i type="logical" name="ADDGRID"> F  </i>
  </separator>
  <separator name="ionic" >
   <i type="int" name="NSW">     1</i>
   <i type="int" name="IBRION">     2</i>
   <i type="int" name="ISIF">     2</i>
   <i name="PSTRESS">      0.00000000</i>
   <i name="EDIFFG">      0.00010000</i>
   <i type="int" name="NFREE">     1</i>
   <i name="POTIM">      0.50000000</i>
   <i name="SMASS">     -3.00000000</i>
   <i name="SCALEE">      1.00000000</i>
  </separator>
  <separator name="ionic md" >
   <i name="TEBEG">      0.00010000</i>
   <i name="TEEND">      0.00010000</i>
   <i type="int" name="NBLOCK">     1</i>
   <i type="int" name="KBLOCK">     1</i>
   <i type="int" name="NPACO">   256</i>
   <i name="APACO">     16.00000000</i>
  </separator>
  <separator name="symmetry" >
   <i type="int" name="ISYM">     0</i>
   <i name="SYMPREC">      0.00001000</i>
  </separator>
  <separator name="dos" >
   <i type="logical" name="LORBIT"> F  </i>
   <v name="RWIGS">     -1.00000000     -1.00000000</v>
   <i type="int" name="NEDOS">   301</i>
   <i name="EMIN">     10.00000000</i>
   <i name="EMAX">    -10.00000000</i>
   <i name="EFERMI">      0.00000000</i>
  </separator>
  <separator name="writing" >
   <i type="int" name="NWRITE">     1</i>
   <i type="logical" name="LWAVE"> F  </i>
   <i type="logical" name="LCHARG"> F  </i>
   <i type="logical" name="LPARD"> F  </i>
   <i type="logical" name="LVTOT"> F  </i>
   <i type="logical" name="LVHAR"> F  </i>
   <i type="logical" name="LELF"> F  </i>
   <i type="logical" name="LOPTICS"> F  </i>
   <v name="STM">      0.00000000      0.00000000      0.00000000      0.00000000      0.00000000      0.00000000      0.00000000</v>
  </separator>
  <separator name="performance" >
   <i type="int" name="NPAR">     4</i>
   <i type="int" name="NSIM">     4</i>
   <i type="int" name="NBLK">    -1</i>
   <i type="logical" name="LPLANE"> T  </i>
   <i type="logical" name="LSCALAPACK"> F  </i>
   <i type="logical" name="LSCAAWARE"> F  </i>
   <i type="logical" name="LSCALU"> F  </i>
   <i type="logical" name="LASYNC"> F  </i>
   <i type="logical" name="LORBITALREAL"> F  </i>
  </separator>
  <separator name="miscellaneous" >
   <i type="int" name="IDIOT">     3</i>
   <i type="logical" name="LMUSIC"> F  </i>
   <v name="POMASS">     26.98200000    150.36000000</v>
   <v name="DARWINR">      0.00000000      0.00000000</v>
   <v name="DARWINV">      1.00000000      1.00000000</v>
   <i type="logical" name="LCORR"> T  </i>
  </separator>
  <i type="logical" name="GGA_COMPAT"> T  </i>
  <i type="logical" name="LBERRY"> F  </i>
  <i type="int" name="ICORELEVEL">     0</i>
  <i type="logical" name="LDAU"> F  </i>
  <i type="int" name="I_CONSTRAINED_M">     0</i>
  <separator name="electronic exchange-correlation" >
   <i type="string" name="GGA">--</i>
   <i type="int" name="VOSKOWN">     0</i>
   <i type="logical" name="LHFCALC"> F  </i>
   <i type="string" name="PRECFOCK"></i>
   <i type="logical" name="LSYMGRAD"> F  </i>
   <i type="logical" name="LHFONE"> F  </i>
   <i type="logical" name="LRHFCALC"> F  </i>
   <i type="logical" name="LTHOMAS"> F  </i>
   <i type="logical" name="LMODELHF"> F  </i>
   <i name="ENCUT4O">     -1.00000000</i>
   <i type="int" name="EXXOEP">     0</i>
   <i type="int" name="FOURORBIT">     0</i>
   <i name="AEXX">      0.00000000</i>
   <i name="HFALPHA">      0.00000000</i>
   <i name="MCALPHA">      0.00000000</i>
   <i name="ALDAX">      1.00000000</i>
   <i name="AGGAX">      1.00000000</i>
   <i name="ALDAC">      1.00000000</i>
   <i name="AGGAC">      1.00000000</i>
   <i type="int" name="NKREDX">     1</i>
   <i type="int" name="NKREDY">     1</i>
   <i type="int" name="NKREDZ">     1</i>
   <i type="logical" name="SHIFTRED"> F  </i>
   <i type="logical" name="ODDONLY"> F  </i>
   <i type="logical" name="EVENONLY"> F  </i>
   <i type="int" name="LMAXFOCK">     0</i>
   <i type="int" name="NMAXFOCKAE">     0</i>
   <i type="logical" name="LFOCKAEDFT"> F  </i>
   <i name="HFSCREEN">      0.00000000</i>
   <i name="HFSCREENC">      0.00000000</i>
   <i type="int" name="NBANDSGWLOW">     0</i>
  </separator>
  <separator name="vdW DFT" >
   <i type="logical" name="LUSE_VDW"> F  </i>
   <i name="Zab_VDW">     -0.84910000</i>
   <i name="PARAM1">      0.12340000</i>
   <i name="PARAM2">      1.00000000</i>
   <i name="PARAM3">      0.00000000</i>
  </separator>
  <separator name="model GW" >
   <i type="int" name="MODEL_GW">     0</i>
   <i name="MODEL_EPS0">     17.42804902</i>
   <i name="MODEL_ALPHA">      1.00000000</i>
  </separator>
  <separator name="linear response parameters" >
   <i type="logical" name="LEPSILON"> F  </i>
   <i type="logical" name="LRPA"> F  </i>
   <i type="logical" name="LNABLA"> F  </i>
   <i type="logical" name="LVEL"> F  </i>
   <i type="int" name="KINTER">     0</i>
   <i name="CSHIFT">      0.10000000</i>
   <i name="OMEGAMAX">     -1.00000000</i>
   <i name="DEG_THRESHOLD">      0.00200000</i>
  </separator>
  <separator name="orbital magnetization" >
   <i type="logical" name="NUCIND"> F  </i>
   <v name="MAGPOS">      0.00000000      0.00000000      0.00000000</v>
   <i type="logical" name="LNICSALL"> T  </i>
   <i type="logical" name="ORBITALMAG"> F  </i>
   <i type="logical" name="LMAGBLOCH"> F  </i>
   <i type="logical" name="LCHIMAG"> F  </i>
   <i type="logical" name="LGAUGE"> T  </i>
   <i type="int" name="MAGATOM">     0</i>
   <v name="MAGDIPOL">      0.00000000      0.00000000      0.00000000</v>
   <v name="AVECCONST">      0.00000000      0.00000000      0.00000000</v>
  </separator>
  <separator name="response functions" >
   <i type="logical" name="LADDER"> F  </i>
   <i type="logical" name="LHARTREE"> T  </i>
   <i type="int" name="IBSE">     0</i>
   <i type="logical" name="LTCTE"> F  </i>
   <i type="logical" name="LTETE"> F  </i>
   <i type="logical" name="LTRIPLET"> F  </i>
   <i type="logical" name="LFXCEPS"> F  </i>
   <i type="logical" name="L2ORDER"> F  </i>
   <i type="logical" name="LUSEW"> F  </i>
   <i name="ENCUTGW">     -2.00000000</i>
   <i name="ENCUTGWSOFT">     -2.00000000</i>
   <i name="ENCUTLF">     -1.00000000</i>
   <i type="int" name="LMAXMP2">    -1</i>
   <i name="SCISSOR">      0.00000000</i>
   <i type="int" name="NOMEGA">     0</i>
   <i type="int" name="NOMEGAR">     0</i>
   <i type="int" name="NBANDSGW">    -1</i>
   <i type="int" name="NBANDSO">    -1</i>
   <i type="int" name="NBANDSV">    -1</i>
   <i type="int" name="NELM">     1</i>
   <i type="int" name="DIM">     3</i>
   <i type="int" name="ANTIRES">     0</i>
   <i name="OMEGAMAX">    -30.00000000</i>
   <i name="OMEGATL">   -200.00000000</i>
   <i type="int" name="OMEGAGRID">     0</i>
   <i name="CSHIFT">     -0.10000000</i>
   <i type="logical" name="SELFENERGY"> F  </i>
   <i type="logical" name="LSPECTRAL"> F  </i>
   <i type="logical" name="ODDONLYGW"> F  </i>
   <i type="logical" name="EVENONLYGW"> F  </i>
   <i type="int" name="NKREDLFX">     1</i>
   <i type="int" name="NKREDLFY">     1</i>
   <i type="int" name="NKREDLFZ">     1</i>
   <i type="int" name="MAXMEM">  1800</i>
   <i type="int" name="TELESCOPE">     0</i>
  </separator>
 </parameters>
 <atominfo>
  <atoms>     779 </atoms>
  <types>       2 </types>
  <array name="atoms" >
   <dimension dim="1">ion</dimension>
   <field type="string">element</field>
   <field type="int">atomtype</field>
   <set>
    <rc><c>Al</c><c>   1</c></rc>
    <rc><c>Al</c><c>   1</c></rc>
    <rc><c>Al</c><c>   1</c></rc>
    <rc><c>Al</c><c>   1</c></rc>
    <rc><c>Al</c><c>   1</c></rc>
    <rc><c>Al</c><c>   1</c></rc>
    <rc><c>Al</c><c>   1</c></rc>
    <rc><c>Al</c><c>   1</c></rc>
    <rc><c>Al</c><c>   1</c></rc>
    <rc><c>Al</c><c>   1</c></rc>
    <rc><c>Al</c><c>   1</c></rc>
    <rc><c>Al</c><c>   1</c></rc>
    <rc><c>Al</c><c>   1</c></rc>
    <rc><c>Al</c><c>   1</c></rc>
    <rc><c>Al</c><c>   1</c></rc>
    <rc><c>Al</c><c>   1</c></rc>
    <rc><c>Al</c><c>   1</c></rc>
    <rc><c>Al</c><c>   1</c></rc>
    <rc><c>Al</c><c>   1</c></rc>
    <rc><c>Al</c><c>   1</c></rc>
    <rc><c>Al</c><c>   1</c></rc>
    <rc><c>Al</c><c>   1</c></rc>
    <rc><c>Al</c><c>   1</c></rc>
    <rc><c>Al</c><c>   1</c></rc>
    <rc><c>Al</c><c>   1</c></rc>
    <rc><c>Al</c><c>   1</c></rc>
    <rc><c>Al</c><c>   1</c></rc>
    <rc><c>Al</c><c>   1</c></rc>
    <rc><c>Al</c><c>   1</c></rc>
    <rc><c>Al</c><c>   1</c></rc>
    <rc><c>Al</c><c>   1</c></rc>
    <rc><c>Al</c><c>   1</c></rc>
    <rc><c>Al</c><c>   1</c></rc>
    <rc><c>Al</c><c>   1</c></rc>
    <rc><c>Al</c><c>   1</c></rc>
    <rc><c>Al</c><c>   1</c></rc>
    <rc><c>Al</c><c>   1</c></rc>
    <rc><c>Al</c><c>   1</c></rc>
    <rc><c>Al</c><c>   1</c></rc>
    <rc><c>Al</c><c>   1</c></rc>
    <rc><c>Al</c><c>   1</c></rc>
    <rc><c>Al</c><c>   1</c></rc>
    <rc><c>Al</c><c>   1</c></rc>
    <rc><c>Al</c><c>   1</c></rc>
    <rc><c>Al</c><c>   1</c></rc>
    <rc><c>Al</c><c>   1</c></rc>
    <rc><c>Al</c><c>   1</c></rc>
    <rc><c>Al</c><c>   1</c></rc>
    <rc><c>Al</c><c>   1</c></rc>
    <rc><c>Al</c><c>   1</c></rc>
    <rc><c>Al</c><c>   1</c></rc>
    <rc><c>Al</c><c>   1</c></rc>
    <rc><c>Al</c><c>   1</c></rc>
    <rc><c>Al</c><c>   1</c></rc>
    <rc><c>Al</c><c>   1</c></rc>
    <rc><c>Al</c><c>   1</c></rc>
    <rc><c>Al</c><c>   1</c></rc>
    <rc><c>Al</c><c>   1</c></rc>
    <rc><c>Al</c><c>   1</c></rc>
    <rc><c>Al</c><c>   1</c></rc>
    <rc><c>Al</c><c>   1</c></rc>
    <rc><c>Al</c><c>   1</c></rc>
    <rc><c>Al</c><c>   1</c></rc>
    <rc><c>Al</c><c>   1</c></rc>
    <rc><c>Al</c><c>   1</c></rc>
    <rc><c>Al</c><c>   1</c></rc>
    <rc><c>Al</c><c>   1</c></rc>
    <rc><c>Al</c><c>   1</c></rc>
    <rc><c>Al</c><c>   1</c></rc>
    <rc><c>Al</c><c>   1</c></rc>
    <rc><c>Al</c><c>   1</c></rc>
    <rc><c>Al</c><c>   1</c></rc>
    <rc><c>Al</c><c>   1</c></rc>
    <rc><c>Al</c><c>   1</c></rc>
    <rc><c>Al</c><c>   1</c></rc>
    <rc><c>Al</c><c>   1</c></rc>
    <rc><c>Al</c><c>   1</c></rc>
    <rc><c>Al</c><c>   1</c></rc>
    <rc><c>Al</c><c>   1</c></rc>
    <rc><c>Al</c><c>   1</c></rc>
    <rc><c>Al</c><c>   1</c></rc>
    <rc><c>Al</c><c>   1</c></rc>
    <rc><c>Al</c><c>   1</c></rc>
    <rc><c>Al</c><c>   1</c></rc>
    <rc><c>Al</c><c>   1</c></rc>
    <rc><c>Al</c><c>   1</c></rc>
    <rc><c>Al</c><c>   1</c></rc>
    <rc><c>Al</c><c>   1</c></rc>
    <rc><c>Al</c><c>   1</c></rc>
    <rc><c>Al</c><c>   1</c></rc>
    <rc><c>Al</c><c>   1</c></rc>
    <rc><c>Al</c><c>   1</c></rc>
    <rc><c>Al</c><c>   1</c></rc>
    <rc><c>Al</c><c>   1</c></rc>
    <rc><c>Al</c><c>   1</c></rc>
    <rc><c>Al</c><c>   1</c></rc>
    <rc><c>Al</c><c>   1</c></rc>
    <rc><c>Al</c><c>   1</c></rc>
    <rc><c>Al</c><c>   1</c></rc>
    <rc><c>Al</c><c>   1</c></rc>
    <rc><c>Al</c><c>   1</c></rc>
    <rc><c>Al</c><c>   1</c></rc>
    <rc><c>Al</c><c>   1</c></rc>
    <rc><c>Al</c><c>   1</c></rc>
    <rc><c>Al</c><c>   1</c></rc>
    <rc><c>Al</c><c>   1</c></rc>
    <rc><c>Al</c><c>   1</c></rc>
    <rc><c>Al</c><c>   1</c></rc>
    <rc><c>Al</c><c>   1</c></rc>
    <rc><c>Al</c><c>   1</c></rc>
    <rc><c>Al</c><c>   1</c></rc>
    <rc><c>Al</c><c>   1</c></rc>
    <rc><c>Al</c><c>   1</c></rc>
    <rc><c>Al</c><c>   1</c></rc>
    <rc><c>Al</c><c>   1</c></rc>
    <rc><c>Al</c><c>   1</c></rc>
    <rc><c>Al</c><c>   1</c></rc>
    <rc><c>Al</c><c>   1</c></rc>
    <rc><c>Al</c><c>   1</c></rc>
    <rc><c>Al</c><c>   1</c></rc>
    <rc><c>Al</c><c>   1</c></rc>
    <rc><c>Al</c><c>   1</c></rc>
    <rc><c>Al</c><c>   1</c></rc>
    <rc><c>Al</c><c>   1</c></rc>
    <rc><c>Al</c><c>   1</c></rc>
    <rc><c>Al</c><c>   1</c></rc>
    <rc><c>Al</c><c>   1</c></rc>
    <rc><c>Al</c><c>   1</c></rc>
    <rc><c>Al</c><c>   1</c></rc>
    <rc><c>Al</c><c>   1</c></rc>
    <rc><c>Al</c><c>   1</c></rc>
    <rc><c>Al</c><c>   1</c></rc>
    <rc><c>Al</c><c>   1</c></rc>
    <rc><c>Al</c><c>   1</c></rc>
    <rc><c>Al</c><c>   1</c></rc>
    <rc><c>Al</c><c>   1</c></rc>
    <rc><c>Al</c><c>   1</c></rc>
    <rc><c>Al</c><c>   1</c></rc>
    <rc><c>Al</c><c>   1</c></rc>
    <rc><c>Al</c><c>   1</c></rc>
    <rc><c>Al</c><c>   1</c></rc>
    <rc><c>Al</c><c>   1</c></rc>
    <rc><c>Al</c><c>   1</c></rc>
    <rc><c>Al</c><c>   1</c></rc>
    <rc><c>Al</c><c>   1</c></rc>
    <rc><c>Al</c><c>   1</c></rc>
    <rc><c>Al</c><c>   1</c></rc>
    <rc><c>Al</c><c>   1</c></rc>
    <rc><c>Al</c><c>   1</c></rc>
    <rc><c>Al</c><c>   1</c></rc>
    <rc><c>Al</c><c>   1</c></rc>
    <rc><c>Al</c><c>   1</c></rc>
    <rc><c>Al</c><c>   1</c></rc>
    <rc><c>Al</c><c>   1</c></rc>
    <rc><c>Al</c><c>   1</c></rc>
    <rc><c>Al</c><c>   1</c></rc>
    <rc><c>Al</c><c>   1</c></rc>
    <rc><c>Al</c><c>   1</c></rc>
    <rc><c>Al</c><c>   1</c></rc>
    <rc><c>Al</c><c>   1</c></rc>
    <rc><c>Al</c><c>   1</c></rc>
    <rc><c>Al</c><c>   1</c></rc>
    <rc><c>Al</c><c>   1</c></rc>
    <rc><c>Al</c><c>   1</c></rc>
    <rc><c>Al</c><c>   1</c></rc>
    <rc><c>Al</c><c>   1</c></rc>
    <rc><c>Al</c><c>   1</c></rc>
    <rc><c>Al</c><c>   1</c></rc>
    <rc><c>Al</c><c>   1</c></rc>
    <rc><c>Al</c><c>   1</c></rc>
    <rc><c>Al</c><c>   1</c></rc>
    <rc><c>Al</c><c>   1</c></rc>
    <rc><c>Al</c><c>   1</c></rc>
    <rc><c>Al</c><c>   1</c></rc>
    <rc><c>Al</c><c>   1</c></rc>
    <rc><c>Al</c><c>   1</c></rc>
    <rc><c>Al</c><c>   1</c></rc>
    <rc><c>Al</c><c>   1</c></rc>
    <rc><c>Al</c><c>   1</c></rc>
    <rc><c>Al</c><c>   1</c></rc>
    <rc><c>Al</c><c>   1</c></rc>
    <rc><c>Al</c><c>   1</c></rc>
    <rc><c>Al</c><c>   1</c></rc>
    <rc><c>Al</c><c>   1</c></rc>
    <rc><c>Al</c><c>   1</c></rc>
    <rc><c>Al</c><c>   1</c></rc>
    <rc><c>Al</c><c>   1</c></rc>
    <rc><c>Al</c><c>   1</c></rc>
    <rc><c>Al</c><c>   1</c></rc>
    <rc><c>Al</c><c>   1</c></rc>
    <rc><c>Al</c><c>   1</c></rc>
    <rc><c>Al</c><c>   1</c></rc>
    <rc><c>Al</c><c>   1</c></rc>
    <rc><c>Al</c><c>   1</c></rc>
    <rc><c>Al</c><c>   1</c></rc>
    <rc><c>Sm</c><c>   2</c></rc>
    <rc><c>Sm</c><c>   2</c></rc>
    <rc><c>Sm</c><c>   2</c></rc>
    <rc><c>Sm</c><c>   2</c></rc>
    <rc><c>Sm</c><c>   2</c></rc>
    <rc><c>Sm</c><c>   2</c></rc>
    <rc><c>Sm</c><c>   2</c></rc>
    <rc><c>Sm</c><c>   2</c></rc>
    <rc><c>Sm</c><c>   2</c></rc>
    <rc><c>Sm</c><c>   2</c></rc>
    <rc><c>Sm</c><c>   2</c></rc>
    <rc><c>Sm</c><c>   2</c></rc>
    <rc><c>Sm</c><c>   2</c></rc>
    <rc><c>Sm</c><c>   2</c></rc>
    <rc><c>Sm</c><c>   2</c></rc>
    <rc><c>Sm</c><c>   2</c></rc>
    <rc><c>Sm</c><c>   2</c></rc>
    <rc><c>Sm</c><c>   2</c></rc>
    <rc><c>Sm</c><c>   2</c></rc>
    <rc><c>Sm</c><c>   2</c></rc>
    <rc><c>Sm</c><c>   2</c></rc>
    <rc><c>Sm</c><c>   2</c></rc>
    <rc><c>Sm</c><c>   2</c></rc>
    <rc><c>Sm</c><c>   2</c></rc>
    <rc><c>Sm</c><c>   2</c></rc>
    <rc><c>Sm</c><c>   2</c></rc>
    <rc><c>Sm</c><c>   2</c></rc>
    <rc><c>Sm</c><c>   2</c></rc>
    <rc><c>Sm</c><c>   2</c></rc>
    <rc><c>Sm</c><c>   2</c></rc>
    <rc><c>Sm</c><c>   2</c></rc>
    <rc><c>Sm</c><c>   2</c></rc>
    <rc><c>Sm</c><c>   2</c></rc>
    <rc><c>Sm</c><c>   2</c></rc>
    <rc><c>Sm</c><c>   2</c></rc>
    <rc><c>Sm</c><c>   2</c></rc>
    <rc><c>Sm</c><c>   2</c></rc>
    <rc><c>Sm</c><c>   2</c></rc>
    <rc><c>Sm</c><c>   2</c></rc>
    <rc><c>Sm</c><c>   2</c></rc>
    <rc><c>Sm</c><c>   2</c></rc>
    <rc><c>Sm</c><c>   2</c></rc>
    <rc><c>Sm</c><c>   2</c></rc>
    <rc><c>Sm</c><c>   2</c></rc>
    <rc><c>Sm</c><c>   2</c></rc>
    <rc><c>Sm</c><c>   2</c></rc>
    <rc><c>Sm</c><c>   2</c></rc>
    <rc><c>Sm</c><c>   2</c></rc>
    <rc><c>Sm</c><c>   2</c></rc>
    <rc><c>Sm</c><c>   2</c></rc>
    <rc><c>Sm</c><c>   2</c></rc>
    <rc><c>Sm</c><c>   2</c></rc>
    <rc><c>Sm</c><c>   2</c></rc>
    <rc><c>Sm</c><c>   2</c></rc>
    <rc><c>Sm</c><c>   2</c></rc>
    <rc><c>Sm</c><c>   2</c></rc>
    <rc><c>Sm</c><c>   2</c></rc>
    <rc><c>Sm</c><c>   2</c></rc>
    <rc><c>Sm</c><c>   2</c></rc>
    <rc><c>Sm</c><c>   2</c></rc>
    <rc><c>Sm</c><c>   2</c></rc>
    <rc><c>Sm</c><c>   2</c></rc>
    <rc><c>Sm</c><c>   2</c></rc>
    <rc><c>Sm</c><c>   2</c></rc>
    <rc><c>Sm</c><c>   2</c></rc>
    <rc><c>Sm</c><c>   2</c></rc>
    <rc><c>Sm</c><c>   2</c></rc>
    <rc><c>Sm</c><c>   2</c></rc>
    <rc><c>Sm</c><c>   2</c></rc>
    <rc><c>Sm</c><c>   2</c></rc>
    <rc><c>Sm</c><c>   2</c></rc>
    <rc><c>Sm</c><c>   2</c></rc>
    <rc><c>Sm</c><c>   2</c></rc>
    <rc><c>Sm</c><c>   2</c></rc>
    <rc><c>Sm</c><c>   2</c></rc>
    <rc><c>Sm</c><c>   2</c></rc>
    <rc><c>Sm</c><c>   2</c></rc>
    <rc><c>Sm</c><c>   2</c></rc>
    <rc><c>Sm</c><c>   2</c></rc>
    <rc><c>Sm</c><c>   2</c></rc>
    <rc><c>Sm</c><c>   2</c></rc>
    <rc><c>Sm</c><c>   2</c></rc>
    <rc><c>Sm</c><c>   2</c></rc>
    <rc><c>Sm</c><c>   2</c></rc>
    <rc><c>Sm</c><c>   2</c></rc>
    <rc><c>Sm</c><c>   2</c></rc>
    <rc><c>Sm</c><c>   2</c></rc>
    <rc><c>Sm</c><c>   2</c></rc>
    <rc><c>Sm</c><c>   2</c></rc>
    <rc><c>Sm</c><c>   2</c></rc>
    <rc><c>Sm</c><c>   2</c></rc>
    <rc><c>Sm</c><c>   2</c></rc>
    <rc><c>Sm</c><c>   2</c></rc>
    <rc><c>Sm</c><c>   2</c></rc>
    <rc><c>Sm</c><c>   2</c></rc>
    <rc><c>Sm</c><c>   2</c></rc>
    <rc><c>Sm</c><c>   2</c></rc>
    <rc><c>Sm</c><c>   2</c></rc>
    <rc><c>Sm</c><c>   2</c></rc>
    <rc><c>Sm</c><c>   2</c></rc>
    <rc><c>Sm</c><c>   2</c></rc>
    <rc><c>Sm</c><c>   2</c></rc>
    <rc><c>Sm</c><c>   2</c></rc>
    <rc><c>Sm</c><c>   2</c></rc>
    <rc><c>Sm</c><c>   2</c></rc>
    <rc><c>Sm</c><c>   2</c></rc>
    <rc><c>Sm</c><c>   2</c></rc>
    <rc><c>Sm</c><c>   2</c></rc>
    <rc><c>Sm</c><c>   2</c></rc>
    <rc><c>Sm</c><c>   2</c></rc>
    <rc><c>Sm</c><c>   2</c></rc>
    <rc><c>Sm</c><c>   2</c></rc>
    <rc><c>Sm</c><c>   2</c></rc>
    <rc><c>Sm</c><c>   2</c></rc>
    <rc><c>Sm</c><c>   2</c></rc>
    <rc><c>Sm</c><c>   2</c></rc>
    <rc><c>Sm</c><c>   2</c></rc>
    <rc><c>Sm</c><c>   2</c></rc>
    <rc><c>Sm</c><c>   2</c></rc>
    <rc><c>Sm</c><c>   2</c></rc>
    <rc><c>Sm</c><c>   2</c></rc>
    <rc><c>Sm</c><c>   2</c></rc>
    <rc><c>Sm</c><c>   2</c></rc>
    <rc><c>Sm</c><c>   2</c></rc>
    <rc><c>Sm</c><c>   2</c></rc>
    <rc><c>Sm</c><c>   2</c></rc>
    <rc><c>Sm</c><c>   2</c></rc>
    <rc><c>Sm</c><c>   2</c></rc>
    <rc><c>Sm</c><c>   2</c></rc>
    <rc><c>Sm</c><c>   2</c></rc>
    <rc><c>Sm</c><c>   2</c></rc>
    <rc><c>Sm</c><c>   2</c></rc>
    <rc><c>Sm</c><c>   2</c></rc>
    <rc><c>Sm</c><c>   2</c></rc>
    <rc><c>Sm</c><c>   2</c></rc>
    <rc><c>Sm</c><c>   2</c></rc>
    <rc><c>Sm</c><c>   2</c></rc>
    <rc><c>Sm</c><c>   2</c></rc>
    <rc><c>Sm</c><c>   2</c></rc>
    <rc><c>Sm</c><c>   2</c></rc>
    <rc><c>Sm</c><c>   2</c></rc>
    <rc><c>Sm</c><c>   2</c></rc>
    <rc><c>Sm</c><c>   2</c></rc>
    <rc><c>Sm</c><c>   2</c></rc>
    <rc><c>Sm</c><c>   2</c></rc>
    <rc><c>Sm</c><c>   2</c></rc>
    <rc><c>Sm</c><c>   2</c></rc>
    <rc><c>Sm</c><c>   2</c></rc>
    <rc><c>Sm</c><c>   2</c></rc>
    <rc><c>Sm</c><c>   2</c></rc>
    <rc><c>Sm</c><c>   2</c></rc>
    <rc><c>Sm</c><c>   2</c></rc>
    <rc><c>Sm</c><c>   2</c></rc>
    <rc><c>Sm</c><c>   2</c></rc>
    <rc><c>Sm</c><c>   2</c></rc>
    <rc><c>Sm</c><c>   2</c></rc>
    <rc><c>Sm</c><c>   2</c></rc>
    <rc><c>Sm</c><c>   2</c></rc>
    <rc><c>Sm</c><c>   2</c></rc>
    <rc><c>Sm</c><c>   2</c></rc>
    <rc><c>Sm</c><c>   2</c></rc>
    <rc><c>Sm</c><c>   2</c></rc>
    <rc><c>Sm</c><c>   2</c></rc>
    <rc><c>Sm</c><c>   2</c></rc>
    <rc><c>Sm</c><c>   2</c></rc>
    <rc><c>Sm</c><c>   2</c></rc>
    <rc><c>Sm</c><c>   2</c></rc>
    <rc><c>Sm</c><c>   2</c></rc>
    <rc><c>Sm</c><c>   2</c></rc>
    <rc><c>Sm</c><c>   2</c></rc>
    <rc><c>Sm</c><c>   2</c></rc>
    <rc><c>Sm</c><c>   2</c></rc>
    <rc><c>Sm</c><c>   2</c></rc>
    <rc><c>Sm</c><c>   2</c></rc>
    <rc><c>Sm</c><c>   2</c></rc>
    <rc><c>Sm</c><c>   2</c></rc>
    <rc><c>Sm</c><c>   2</c></rc>
    <rc><c>Sm</c><c>   2</c></rc>
    <rc><c>Sm</c><c>   2</c></rc>
    <rc><c>Sm</c><c>   2</c></rc>
    <rc><c>Sm</c><c>   2</c></rc>
    <rc><c>Sm</c><c>   2</c></rc>
    <rc><c>Sm</c><c>   2</c></rc>
    <rc><c>Sm</c><c>   2</c></rc>
    <rc><c>Sm</c><c>   2</c></rc>
    <rc><c>Sm</c><c>   2</c></rc>
    <rc><c>Sm</c><c>   2</c></rc>
    <rc><c>Sm</c><c>   2</c></rc>
    <rc><c>Sm</c><c>   2</c></rc>
    <rc><c>Sm</c><c>   2</c></rc>
    <rc><c>Sm</c><c>   2</c></rc>
    <rc><c>Sm</c><c>   2</c></rc>
    <rc><c>Sm</c><c>   2</c></rc>
    <rc><c>Sm</c><c>   2</c></rc>
    <rc><c>Sm</c><c>   2</c></rc>
    <rc><c>Sm</c><c>   2</c></rc>
    <rc><c>Sm</c><c>   2</c></rc>
    <rc><c>Sm</c><c>   2</c></rc>
    <rc><c>Sm</c><c>   2</c></rc>
    <rc><c>Sm</c><c>   2</c></rc>
    <rc><c>Sm</c><c>   2</c></rc>
    <rc><c>Sm</c><c>   2</c></rc>
    <rc><c>Sm</c><c>   2</c></rc>
    <rc><c>Sm</c><c>   2</c></rc>
    <rc><c>Sm</c><c>   2</c></rc>
    <rc><c>Sm</c><c>   2</c></rc>
    <rc><c>Sm</c><c>   2</c></rc>
    <rc><c>Sm</c><c>   2</c></rc>
    <rc><c>Sm</c><c>   2</c></rc>
    <rc><c>Sm</c><c>   2</c></rc>
    <rc><c>Sm</c><c>   2</c></rc>
    <rc><c>Sm</c><c>   2</c></rc>
    <rc><c>Sm</c><c>   2</c></rc>
    <rc><c>Sm</c><c>   2</c></rc>
    <rc><c>Sm</c><c>   2</c></rc>
    <rc><c>Sm</c><c>   2</c></rc>
    <rc><c>Sm</c><c>   2</c></rc>
    <rc><c>Sm</c><c>   2</c></rc>
    <rc><c>Sm</c><c>   2</c></rc>
    <rc><c>Sm</c><c>   2</c></rc>
    <rc><c>Sm</c><c>   2</c></rc>
    <rc><c>Sm</c><c>   2</c></rc>
    <rc><c>Sm</c><c>   2</c></rc>
    <rc><c>Sm</c><c>   2</c></rc>
    <rc><c>Sm</c><c>   2</c></rc>
    <rc><c>Sm</c><c>   2</c></rc>
    <rc><c>Sm</c><c>   2</c></rc>
    <rc><c>Sm</c><c>   2</c></rc>
    <rc><c>Sm</c><c>   2</c></rc>
    <rc><c>Sm</c><c>   2</c></rc>
    <rc><c>Sm</c><c>   2</c></rc>
    <rc><c>Sm</c><c>   2</c></rc>
    <rc><c>Sm</c><c>   2</c></rc>
    <rc><c>Sm</c><c>   2</c></rc>
    <rc><c>Sm</c><c>   2</c></rc>
    <rc><c>Sm</c><c>   2</c></rc>
    <rc><c>Sm</c><c>   2</c></rc>
    <rc><c>Sm</c><c>   2</c></rc>
    <rc><c>Sm</c><c>   2</c></rc>
    <rc><c>Sm</c><c>   2</c></rc>
    <rc><c>Sm</c><c>   2</c></rc>
    <rc><c>Sm</c><c>   2</c></rc>
    <rc><c>Sm</c><c>   2</c></rc>
    <rc><c>Sm</c><c>   2</c></rc>
    <rc><c>Sm</c><c>   2</c></rc>
    <rc><c>Sm</c><c>   2</c></rc>
    <rc><c>Sm</c><c>   2</c></rc>
    <rc><c>Sm</c><c>   2</c></rc>
    <rc><c>Sm</c><c>   2</c></rc>
    <rc><c>Sm</c><c>   2</c></rc>
    <rc><c>Sm</c><c>   2</c></rc>
    <rc><c>Sm</c><c>   2</c></rc>
    <rc><c>Sm</c><c>   2</c></rc>
    <rc><c>Sm</c><c>   2</c></rc>
    <rc><c>Sm</c><c>   2</c></rc>
    <rc><c>Sm</c><c>   2</c></rc>
    <rc><c>Sm</c><c>   2</c></rc>
    <rc><c>Sm</c><c>   2</c></rc>
    <rc><c>Sm</c><c>   2</c></rc>
    <rc><c>Sm</c><c>   2</c></rc>
    <rc><c>Sm</c><c>   2</c></rc>
    <rc><c>Sm</c><c>   2</c></rc>
    <rc><c>Sm</c><c>   2</c></rc>
    <rc><c>Sm</c><c>   2</c></rc>
    <rc><c>Sm</c><c>   2</c></rc>
    <rc><c>Sm</c><c>   2</c></rc>
    <rc><c>Sm</c><c>   2</c></rc>
    <rc><c>Sm</c><c>   2</c></rc>
    <rc><c>Sm</c><c>   2</c></rc>
    <rc><c>Sm</c><c>   2</c></rc>
    <rc><c>Sm</c><c>   2</c></rc>
    <rc><c>Sm</c><c>   2</c></rc>
    <rc><c>Sm</c><c>   2</c></rc>
    <rc><c>Sm</c><c>   2</c></rc>
    <rc><c>Sm</c><c>   2</c></rc>
    <rc><c>Sm</c><c>   2</c></rc>
    <rc><c>Sm</c><c>   2</c></rc>
    <rc><c>Sm</c><c>   2</c></rc>
    <rc><c>Sm</c><c>   2</c></rc>
    <rc><c>Sm</c><c>   2</c></rc>
    <rc><c>Sm</c><c>   2</c></rc>
    <rc><c>Sm</c><c>   2</c></rc>
    <rc><c>Sm</c><c>   2</c></rc>
    <rc><c>Sm</c><c>   2</c></rc>
    <rc><c>Sm</c><c>   2</c></rc>
    <rc><c>Sm</c><c>   2</c></rc>
    <rc><c>Sm</c><c>   2</c></rc>
    <rc><c>Sm</c><c>   2</c></rc>
    <rc><c>Sm</c><c>   2</c></rc>
    <rc><c>Sm</c><c>   2</c></rc>
    <rc><c>Sm</c><c>   2</c></rc>
    <rc><c>Sm</c><c>   2</c></rc>
    <rc><c>Sm</c><c>   2</c></rc>
    <rc><c>Sm</c><c>   2</c></rc>
    <rc><c>Sm</c><c>   2</c></rc>
    <rc><c>Sm</c><c>   2</c></rc>
    <rc><c>Sm</c><c>   2</c></rc>
    <rc><c>Sm</c><c>   2</c></rc>
    <rc><c>Sm</c><c>   2</c></rc>
    <rc><c>Sm</c><c>   2</c></rc>
    <rc><c>Sm</c><c>   2</c></rc>
    <rc><c>Sm</c><c>   2</c></rc>
    <rc><c>Sm</c><c>   2</c></rc>
    <rc><c>Sm</c><c>   2</c></rc>
    <rc><c>Sm</c><c>   2</c></rc>
    <rc><c>Sm</c><c>   2</c></rc>
    <rc><c>Sm</c><c>   2</c></rc>
    <rc><c>Sm</c><c>   2</c></rc>
    <rc><c>Sm</c><c>   2</c></rc>
    <rc><c>Sm</c><c>   2</c></rc>
    <rc><c>Sm</c><c>   2</c></rc>
    <rc><c>Sm</c><c>   2</c></rc>
    <rc><c>Sm</c><c>   2</c></rc>
    <rc><c>Sm</c><c>   2</c></rc>
    <rc><c>Sm</c><c>   2</c></rc>
    <rc><c>Sm</c><c>   2</c></rc>
    <rc><c>Sm</c><c>   2</c></rc>
    <rc><c>Sm</c><c>   2</c></rc>
    <rc><c>Sm</c><c>   2</c></rc>
    <rc><c>Sm</c><c>   2</c></rc>
    <rc><c>Sm</c><c>   2</c></rc>
    <rc><c>Sm</c><c>   2</c></rc>
    <rc><c>Sm</c><c>   2</c></rc>
    <rc><c>Sm</c><c>   2</c></rc>
    <rc><c>Sm</c><c>   2</c></rc>
    <rc><c>Sm</c><c>   2</c></rc>
    <rc><c>Sm</c><c>   2</c></rc>
    <rc><c>Sm</c><c>   2</c></rc>
    <rc><c>Sm</c><c>   2</c></rc>
    <rc><c>Sm</c><c>   2</c></rc>
    <rc><c>Sm</c><c>   2</c></rc>
    <rc><c>Sm</c><c>   2</c></rc>
    <rc><c>Sm</c><c>   2</c></rc>
    <rc><c>Sm</c><c>   2</c></rc>
    <rc><c>Sm</c><c>   2</c></rc>
    <rc><c>Sm</c><c>   2</c></rc>
    <rc><c>Sm</c><c>   2</c></rc>
    <rc><c>Sm</c><c>   2</c></rc>
    <rc><c>Sm</c><c>   2</c></rc>
    <rc><c>Sm</c><c>   2</c></rc>
    <rc><c>Sm</c><c>   2</c></rc>
    <rc><c>Sm</c><c>   2</c></rc>
    <rc><c>Sm</c><c>   2</c></rc>
    <rc><c>Sm</c><c>   2</c></rc>
    <rc><c>Sm</c><c>   2</c></rc>
    <rc><c>Sm</c><c>   2</c></rc>
    <rc><c>Sm</c><c>   2</c></rc>
    <rc><c>Sm</c><c>   2</c></rc>
    <rc><c>Sm</c><c>   2</c></rc>
    <rc><c>Sm</c><c>   2</c></rc>
    <rc><c>Sm</c><c>   2</c></rc>
    <rc><c>Sm</c><c>   2</c></rc>
    <rc><c>Sm</c><c>   2</c></rc>
    <rc><c>Sm</c><c>   2</c></rc>
    <rc><c>Sm</c><c>   2</c></rc>
    <rc><c>Sm</c><c>   2</c></rc>
    <rc><c>Sm</c><c>   2</c></rc>
    <rc><c>Sm</c><c>   2</c></rc>
    <rc><c>Sm</c><c>   2</c></rc>
    <rc><c>Sm</c><c>   2</c></rc>
    <rc><c>Sm</c><c>   2</c></rc>
    <rc><c>Sm</c><c>   2</c></rc>
    <rc><c>Sm</c><c>   2</c></rc>
    <rc><c>Sm</c><c>   2</c></rc>
    <rc><c>Sm</c><c>   2</c></rc>
    <rc><c>Sm</c><c>   2</c></rc>
    <rc><c>Sm</c><c>   2</c></rc>
    <rc><c>Sm</c><c>   2</c></rc>
    <rc><c>Sm</c><c>   2</c></rc>
    <rc><c>Sm</c><c>   2</c></rc>
    <rc><c>Sm</c><c>   2</c></rc>
    <rc><c>Sm</c><c>   2</c></rc>
    <rc><c>Sm</c><c>   2</c></rc>
    <rc><c>Sm</c><c>   2</c></rc>
    <rc><c>Sm</c><c>   2</c></rc>
    <rc><c>Sm</c><c>   2</c></rc>
    <rc><c>Sm</c><c>   2</c></rc>
    <rc><c>Sm</c><c>   2</c></rc>
    <rc><c>Sm</c><c>   2</c></rc>
    <rc><c>Sm</c><c>   2</c></rc>
    <rc><c>Sm</c><c>   2</c></rc>
    <rc><c>Sm</c><c>   2</c></rc>
    <rc><c>Sm</c><c>   2</c></rc>
    <rc><c>Sm</c><c>   2</c></rc>
    <rc><c>Sm</c><c>   2</c></rc>
    <rc><c>Sm</c><c>   2</c></rc>
    <rc><c>Sm</c><c>   2</c></rc>
    <rc><c>Sm</c><c>   2</c></rc>
    <rc><c>Sm</c><c>   2</c></rc>
    <rc><c>Sm</c><c>   2</c></rc>
    <rc><c>Sm</c><c>   2</c></rc>
    <rc><c>Sm</c><c>   2</c></rc>
    <rc><c>Sm</c><c>   2</c></rc>
    <rc><c>Sm</c><c>   2</c></rc>
    <rc><c>Sm</c><c>   2</c></rc>
    <rc><c>Sm</c><c>   2</c></rc>
    <rc><c>Sm</c><c>   2</c></rc>
    <rc><c>Sm</c><c>   2</c></rc>
    <rc><c>Sm</c><c>   2</c></rc>
    <rc><c>Sm</c><c>   2</c></rc>
    <rc><c>Sm</c><c>   2</c></rc>
    <rc><c>Sm</c><c>   2</c></rc>
    <rc><c>Sm</c><c>   2</c></rc>
    <rc><c>Sm</c><c>   2</c></rc>
    <rc><c>Sm</c><c>   2</c></rc>
    <rc><c>Sm</c><c>   2</c></rc>
    <rc><c>Sm</c><c>   2</c></rc>
    <rc><c>Sm</c><c>   2</c></rc>
    <rc><c>Sm</c><c>   2</c></rc>
    <rc><c>Sm</c><c>   2</c></rc>
    <rc><c>Sm</c><c>   2</c></rc>
    <rc><c>Sm</c><c>   2</c></rc>
    <rc><c>Sm</c><c>   2</c></rc>
    <rc><c>Sm</c><c>   2</c></rc>
    <rc><c>Sm</c><c>   2</c></rc>
    <rc><c>Sm</c><c>   2</c></rc>
    <rc><c>Sm</c><c>   2</c></rc>
    <rc><c>Sm</c><c>   2</c></rc>
    <rc><c>Sm</c><c>   2</c></rc>
    <rc><c>Sm</c><c>   2</c></rc>
    <rc><c>Sm</c><c>   2</c></rc>
    <rc><c>Sm</c><c>   2</c></rc>
    <rc><c>Sm</c><c>   2</c></rc>
    <rc><c>Sm</c><c>   2</c></rc>
    <rc><c>Sm</c><c>   2</c></rc>
    <rc><c>Sm</c><c>   2</c></rc>
    <rc><c>Sm</c><c>   2</c></rc>
    <rc><c>Sm</c><c>   2</c></rc>
    <rc><c>Sm</c><c>   2</c></rc>
    <rc><c>Sm</c><c>   2</c></rc>
    <rc><c>Sm</c><c>   2</c></rc>
    <rc><c>Sm</c><c>   2</c></rc>
    <rc><c>Sm</c><c>   2</c></rc>
    <rc><c>Sm</c><c>   2</c></rc>
    <rc><c>Sm</c><c>   2</c></rc>
    <rc><c>Sm</c><c>   2</c></rc>
    <rc><c>Sm</c><c>   2</c></rc>
    <rc><c>Sm</c><c>   2</c></rc>
    <rc><c>Sm</c><c>   2</c></rc>
    <rc><c>Sm</c><c>   2</c></rc>
    <rc><c>Sm</c><c>   2</c></rc>
    <rc><c>Sm</c><c>   2</c></rc>
    <rc><c>Sm</c><c>   2</c></rc>
    <rc><c>Sm</c><c>   2</c></rc>
    <rc><c>Sm</c><c>   2</c></rc>
    <rc><c>Sm</c><c>   2</c></rc>
    <rc><c>Sm</c><c>   2</c></rc>
    <rc><c>Sm</c><c>   2</c></rc>
    <rc><c>Sm</c><c>   2</c></rc>
    <rc><c>Sm</c><c>   2</c></rc>
    <rc><c>Sm</c><c>   2</c></rc>
    <rc><c>Sm</c><c>   2</c></rc>
    <rc><c>Sm</c><c>   2</c></rc>
    <rc><c>Sm</c><c>   2</c></rc>
    <rc><c>Sm</c><c>   2</c></rc>
    <rc><c>Sm</c><c>   2</c></rc>
    <rc><c>Sm</c><c>   2</c></rc>
    <rc><c>Sm</c><c>   2</c></rc>
    <rc><c>Sm</c><c>   2</c></rc>
    <rc><c>Sm</c><c>   2</c></rc>
    <rc><c>Sm</c><c>   2</c></rc>
    <rc><c>Sm</c><c>   2</c></rc>
    <rc><c>Sm</c><c>   2</c></rc>
    <rc><c>Sm</c><c>   2</c></rc>
    <rc><c>Sm</c><c>   2</c></rc>
    <rc><c>Sm</c><c>   2</c></rc>
    <rc><c>Sm</c><c>   2</c></rc>
    <rc><c>Sm</c><c>   2</c></rc>
    <rc><c>Sm</c><c>   2</c></rc>
    <rc><c>Sm</c><c>   2</c></rc>
    <rc><c>Sm</c><c>   2</c></rc>
    <rc><c>Sm</c><c>   2</c></rc>
    <rc><c>Sm</c><c>   2</c></rc>
    <rc><c>Sm</c><c>   2</c></rc>
    <rc><c>Sm</c><c>   2</c></rc>
    <rc><c>Sm</c><c>   2</c></rc>
    <rc><c>Sm</c><c>   2</c></rc>
    <rc><c>Sm</c><c>   2</c></rc>
    <rc><c>Sm</c><c>   2</c></rc>
    <rc><c>Sm</c><c>   2</c></rc>
    <rc><c>Sm</c><c>   2</c></rc>
    <rc><c>Sm</c><c>   2</c></rc>
    <rc><c>Sm</c><c>   2</c></rc>
    <rc><c>Sm</c><c>   2</c></rc>
    <rc><c>Sm</c><c>   2</c></rc>
    <rc><c>Sm</c><c>   2</c></rc>
    <rc><c>Sm</c><c>   2</c></rc>
    <rc><c>Sm</c><c>   2</c></rc>
    <rc><c>Sm</c><c>   2</c></rc>
    <rc><c>Sm</c><c>   2</c></rc>
    <rc><c>Sm</c><c>   2</c></rc>
    <rc><c>Sm</c><c>   2</c></rc>
    <rc><c>Sm</c><c>   2</c></rc>
    <rc><c>Sm</c><c>   2</c></rc>
    <rc><c>Sm</c><c>   2</c></rc>
    <rc><c>Sm</c><c>   2</c></rc>
    <rc><c>Sm</c><c>   2</c></rc>
    <rc><c>Sm</c><c>   2</c></rc>
    <rc><c>Sm</c><c>   2</c></rc>
    <rc><c>Sm</c><c>   2</c></rc>
    <rc><c>Sm</c><c>   2</c></rc>
    <rc><c>Sm</c><c>   2</c></rc>
    <rc><c>Sm</c><c>   2</c></rc>
    <rc><c>Sm</c><c>   2</c></rc>
    <rc><c>Sm</c><c>   2</c></rc>
    <rc><c>Sm</c><c>   2</c></rc>
    <rc><c>Sm</c><c>   2</c></rc>
    <rc><c>Sm</c><c>   2</c></rc>
    <rc><c>Sm</c><c>   2</c></rc>
    <rc><c>Sm</c><c>   2</c></rc>
    <rc><c>Sm</c><c>   2</c></rc>
    <rc><c>Sm</c><c>   2</c></rc>
    <rc><c>Sm</c><c>   2</c></rc>
    <rc><c>Sm</c><c>   2</c></rc>
    <rc><c>Sm</c><c>   2</c></rc>
    <rc><c>Sm</c><c>   2</c></rc>
    <rc><c>Sm</c><c>   2</c></rc>
    <rc><c>Sm</c><c>   2</c></rc>
    <rc><c>Sm</c><c>   2</c></rc>
    <rc><c>Sm</c><c>   2</c></rc>
    <rc><c>Sm</c><c>   2</c></rc>
    <rc><c>Sm</c><c>   2</c></rc>
    <rc><c>Sm</c><c>   2</c></rc>
    <rc><c>Sm</c><c>   2</c></rc>
    <rc><c>Sm</c><c>   2</c></rc>
    <rc><c>Sm</c><c>   2</c></rc>
    <rc><c>Sm</c><c>   2</c></rc>
    <rc><c>Sm</c><c>   2</c></rc>
    <rc><c>Sm</c><c>   2</c></rc>
    <rc><c>Sm</c><c>   2</c></rc>
    <rc><c>Sm</c><c>   2</c></rc>
    <rc><c>Sm</c><c>   2</c></rc>
    <rc><c>Sm</c><c>   2</c></rc>
    <rc><c>Sm</c><c>   2</c></rc>
    <rc><c>Sm</c><c>   2</c></rc>
    <rc><c>Sm</c><c>   2</c></rc>
    <rc><c>Sm</c><c>   2</c></rc>
    <rc><c>Sm</c><c>   2</c></rc>
    <rc><c>Sm</c><c>   2</c></rc>
    <rc><c>Sm</c><c>   2</c></rc>
    <rc><c>Sm</c><c>   2</c></rc>
    <rc><c>Sm</c><c>   2</c></rc>
    <rc><c>Sm</c><c>   2</c></rc>
    <rc><c>Sm</c><c>   2</c></rc>
    <rc><c>Sm</c><c>   2</c></rc>
    <rc><c>Sm</c><c>   2</c></rc>
    <rc><c>Sm</c><c>   2</c></rc>
    <rc><c>Sm</c><c>   2</c></rc>
    <rc><c>Sm</c><c>   2</c></rc>
    <rc><c>Sm</c><c>   2</c></rc>
    <rc><c>Sm</c><c>   2</c></rc>
    <rc><c>Sm</c><c>   2</c></rc>
    <rc><c>Sm</c><c>   2</c></rc>
    <rc><c>Sm</c><c>   2</c></rc>
    <rc><c>Sm</c><c>   2</c></rc>
    <rc><c>Sm</c><c>   2</c></rc>
    <rc><c>Sm</c><c>   2</c></rc>
    <rc><c>Sm</c><c>   2</c></rc>
    <rc><c>Sm</c><c>   2</c></rc>
    <rc><c>Sm</c><c>   2</c></rc>
    <rc><c>Sm</c><c>   2</c></rc>
    <rc><c>Sm</c><c>   2</c></rc>
    <rc><c>Sm</c><c>   2</c></rc>
    <rc><c>Sm</c><c>   2</c></rc>
    <rc><c>Sm</c><c>   2</c></rc>
    <rc><c>Sm</c><c>   2</c></rc>
    <rc><c>Sm</c><c>   2</c></rc>
    <rc><c>Sm</c><c>   2</c></rc>
    <rc><c>Sm</c><c>   2</c></rc>
    <rc><c>Sm</c><c>   2</c></rc>
    <rc><c>Sm</c><c>   2</c></rc>
    <rc><c>Sm</c><c>   2</c></rc>
    <rc><c>Sm</c><c>   2</c></rc>
    <rc><c>Sm</c><c>   2</c></rc>
    <rc><c>Sm</c><c>   2</c></rc>
    <rc><c>Sm</c><c>   2</c></rc>
    <rc><c>Sm</c><c>   2</c></rc>
    <rc><c>Sm</c><c>   2</c></rc>
    <rc><c>Sm</c><c>   2</c></rc>
    <rc><c>Sm</c><c>   2</c></rc>
    <rc><c>Sm</c><c>   2</c></rc>
    <rc><c>Sm</c><c>   2</c></rc>
    <rc><c>Sm</c><c>   2</c></rc>
    <rc><c>Sm</c><c>   2</c></rc>
   </set>
  </array>
  <array name="atomtypes" >
   <dimension dim="1">type</dimension>
   <field type="int">atomspertype</field>
   <field type="string">element</field>
   <field>mass</field>
   <field>valence</field>
   <field type="string">pseudopotential</field>
   <set>
    <rc><c> 195</c><c>Al</c><c>     26.98200000</c><c>      3.00000000</c><c> PAW_GGA Al 05Jan2001                   </c></rc>
    <rc><c> 584</c><c>Sm</c><c>    150.36000000</c><c>     10.00000000</c><c> PAW_GGA Sm_2 07Jan2002                 </c></rc>
   </set>
  </array>
 </atominfo>
 <structure name="initialpos" >
  <crystal>
   <varray name="basis" >
    <v>      28.28427124       0.00000000       0.00000000 </v>
    <v>       0.00000000      28.28427124       0.00000000 </v>
    <v>       0.00000000       0.00000000      28.28427124 </v>
   </varray>
   <i name="volume">  22627.41698062 </i>
   <varray name="rec_basis" >
    <v>       0.03535534       0.00000000       0.00000000 </v>
    <v>       0.00000000       0.03535534       0.00000000 </v>
    <v>       0.00000000       0.00000000       0.03535534 </v>
   </varray>
  </crystal>
  <varray name="positions" >
   <v>       0.54653263       0.39981174       0.96884716 </v>
   <v>       0.48604918       0.29213810       0.52415276 </v>
   <v>       0.39302826       0.60469961       0.66485119 </v>
   <v>       0.77100384       0.64845848       0.27735782 </v>
   <v>       0.92742229       0.33903265       0.81074715 </v>
   <v>       0.97523069       0.87159324       0.08976126 </v>
   <v>       0.91145515       0.17893577       0.40200621 </v>
   <v>       0.70552063       0.75691199       0.40452385 </v>
   <v>       0.07626247       0.32711315       0.53594160 </v>
   <v>       0.46755505       0.93413353       0.76369381 </v>
   <v>       0.34297943       0.50939178       0.13750839 </v>
   <v>       0.32745075       0.25911093       0.41743565 </v>
   <v>       0.27686119       0.88417196       0.55536175 </v>
   <v>       0.40166572       0.85800695       0.02854204 </v>
   <v>       0.79685259       0.69875288       0.07918620 </v>
   <v>       0.97423172       0.70738983       0.51410961 </v>
   <v>       0.53122616       0.52650404       0.00126600 </v>
   <v>       0.76187587       0.03508568       0.68038273 </v>
   <v>       0.09307957       0.39128709       0.79510930 </v>
   <v>       0.25301838       0.10441685       0.70211482 </v>
   <v>       0.45476532       0.82514000       0.23051977 </v>
   <v>       0.57227707       0.35827732       0.87468290 </v>
   <v>       0.57043982       0.13438416       0.05775690 </v>
   <v>       0.01316357       0.23449898       0.54270506 </v>
   <v>       0.44946384       0.29780829       0.04385662 </v>
   <v>       0.14760160       0.73501778       0.84368038 </v>
   <v>       0.15537211       0.15792179       0.38604522 </v>
   <v>       0.63384056       0.43300819       0.58247757 </v>
   <v>       0.31436729       0.46430969       0.19935739 </v>
   <v>       0.99181461       0.47138596       0.46827221 </v>
   <v>       0.78551435       0.60931969       0.91325331 </v>
   <v>       0.44849157       0.90672779       0.47431281 </v>
   <v>       0.38046527       0.44049263       0.59330726 </v>
   <v>       0.36355999       0.94196701       0.49602032 </v>
   <v>       0.79338074       0.42032653       0.10007763 </v>
   <v>       0.73533630       0.00819492       0.89542866 </v>
   <v>       0.14982367       0.96904373       0.62132287 </v>
   <v>       0.82868290       0.41261959       0.22761750 </v>
   <v>       0.09928608       0.77142143       0.12382698 </v>
   <v>       0.08472204       0.72202730       0.07375765 </v>
   <v>       0.82417011       0.80532837       0.55054951 </v>
   <v>       0.01599312       0.52725697       0.11159706 </v>
   <v>       0.14332676       0.49716049       0.77903652 </v>
   <v>       0.94103181       0.74627495       0.29443645 </v>
   <v>       0.46656990       0.27095842       0.69541860 </v>
   <v>       0.20738602       0.38245773       0.13321686 </v>
   <v>       0.73332882       0.02176380       0.11321723 </v>
   <v>       0.92832890       0.61525726       0.13055420 </v>
   <v>       0.17500877       0.56265259       0.70166206 </v>
   <v>       0.72063255       0.62551498       0.81677592 </v>
   <v>       0.25259280       0.47772980       0.54759836 </v>
   <v>       0.03138788       0.07867336       0.45840359 </v>
   <v>       0.57768154       0.89933348       0.85060215 </v>
   <v>       0.78174305       0.88167095       0.34728044 </v>
   <v>       0.72890663       0.64237070       0.12088394 </v>
   <v>       0.77053452       0.57700777       0.04189682 </v>
   <v>       0.61540794       0.80166745       0.32240963 </v>
   <v>       0.78539419       0.42919159       0.77876663 </v>
   <v>       0.42612648       0.04288912       0.31521225 </v>
   <v>       0.88813949       0.44187737       0.11302471 </v>
   <v>       0.72344303       0.33392143       0.46441627 </v>
   <v>       0.04413319       0.12165868       0.75297213 </v>
   <v>       0.50744724       0.22083569       0.48476839 </v>
   <v>       0.75094509       0.90410233       0.92659092 </v>
   <v>       0.18533230       0.52641392       0.68793309 </v>
   <v>       0.78744006       0.30602264       0.88687229 </v>
   <v>       0.08233166       0.62241077       0.54310846 </v>
   <v>       0.16087069       0.57773399       0.73667836 </v>
   <v>       0.33474636       0.21718669       0.62028313 </v>
   <v>       0.22556019       0.59236526       0.15735960 </v>
   <v>       0.95667744       0.13111877       0.62543488 </v>
   <v>       0.80648756       0.90556431       0.63974190 </v>
   <v>       0.00482845       0.53095627       0.60230255 </v>
   <v>       0.40691996       0.65796471       0.55280542 </v>
   <v>       0.57613826       0.67211342       0.24605083 </v>
   <v>       0.41082382       0.44889641       0.62386513 </v>
   <v>       0.22363508       0.70215225       0.37276840 </v>
   <v>       0.54602242       0.37119865       0.85728073 </v>
   <v>       0.71025372       0.52594280       0.29563904 </v>
   <v>       0.01653290       0.22827300       0.51431131 </v>
   <v>       0.83714509       0.37511969       0.77359295 </v>
   <v>       0.11775780       0.90000725       0.48107719 </v>
   <v>       0.52418709       0.80264968       0.70318842 </v>
   <v>       0.74511373       0.38363206       0.46403980 </v>
   <v>       0.76026869       0.27410746       0.37253761 </v>
   <v>       0.38866717       0.40459824       0.56827736 </v>
   <v>       0.36968327       0.30537271       0.89835358 </v>
   <v>       0.46901131       0.16558266       0.47943497 </v>
   <v>       0.55181122       0.17592096       0.63442707 </v>
   <v>       0.49107361       0.75694358       0.36996222 </v>
   <v>       0.28969216       0.76027822       0.77255869 </v>
   <v>       0.84104562       0.53901148       0.84469855 </v>
   <v>       0.37926579       0.31084728       0.91920328 </v>
   <v>       0.07262385       0.72910690       0.99501467 </v>
   <v>       0.81843472       0.59290338       0.07712221 </v>
   <v>       0.22164631       0.18629074       0.04373455 </v>
   <v>       0.06767702       0.11856699       0.36674976 </v>
   <v>       0.04207039       0.66583443       0.58365202 </v>
   <v>       0.45837688       0.99102449       0.36811733 </v>
   <v>       0.36298275       0.66570425       0.48102951 </v>
   <v>       0.23068428       0.40987396       0.21653438 </v>
   <v>       0.29841900       0.61848831       0.98777199 </v>
   <v>       0.17007160       0.10114861       0.82016754 </v>
   <v>       0.97016478       0.89010096       0.20719147 </v>
   <v>       0.91691875       0.57862377       0.38244200 </v>
   <v>       0.99694490       0.86859894       0.25797319 </v>
   <v>       0.78534365       0.66591644       0.73110771 </v>
   <v>       0.65961695       0.61114335       0.67522240 </v>
   <v>       0.95371509       0.73594284       0.91708755 </v>
   <v>       0.43035698       0.71905518       0.62085685 </v>
   <v>       0.51455879       0.06946373       0.39651251 </v>
   <v>       0.51360989       0.96839428       0.29311085 </v>
   <v>       0.80183822       0.81811714       0.01095724 </v>
   <v>       0.90408039       0.11458015       0.78270537 </v>
   <v>       0.47620779       0.83209419       0.23325348 </v>
   <v>       0.07691455       0.14478350       0.25285530 </v>
   <v>       0.59942913       0.50622892       0.69328880 </v>
   <v>       0.52814937       0.43929672       0.41937840 </v>
   <v>       0.07378531       0.41090965       0.51291215 </v>
   <v>       0.52065849       0.21148694       0.23168564 </v>
   <v>       0.78442502       0.83177471       0.62249279 </v>
   <v>       0.26082945       0.67712784       0.21499348 </v>
   <v>       0.77149343       0.25530148       0.11331558 </v>
   <v>       0.04671884       0.09049988       0.51220834 </v>
   <v>       0.22285557       0.20079517       0.90243094 </v>
   <v>       0.04445457       0.55927658       0.58917809 </v>
   <v>       0.74575615       0.58779430       0.52992892 </v>
   <v>       0.60571098       0.86171031       0.06830120 </v>
   <v>       0.68793392       0.51152897       0.70999193 </v>
   <v>       0.61277151       0.74162817       0.18252897 </v>
   <v>       0.63637018       0.38179111       0.96139324 </v>
   <v>       0.85822439       0.65934896       0.44707525 </v>
   <v>       0.95651817       0.46646300       0.13073945 </v>
   <v>       0.04076731       0.32217121       0.41885900 </v>
   <v>       0.11503935       0.41141891       0.41761017 </v>
   <v>       0.60355091       0.35766411       0.07454829 </v>
   <v>       0.19846678       0.65244293       0.31177473 </v>
   <v>       0.76750469       0.42020607       0.27410650 </v>
   <v>       0.65120125       0.49330330       0.01412249 </v>
   <v>       0.89303255       0.03582668       0.47584438 </v>
   <v>       0.55821157       0.04447460       0.51448822 </v>
   <v>       0.07954836       0.55007124       0.34417343 </v>
   <v>       0.42148936       0.01293159       0.14083052 </v>
   <v>       0.01763868       0.04470968       0.38401413 </v>
   <v>       0.62756443       0.48665234       0.13149452 </v>
   <v>       0.66364670       0.51946449       0.94051361 </v>
   <v>       0.14466810       0.71156406       0.27450234 </v>
   <v>       0.07461357       0.67985821       0.54533482 </v>
   <v>       0.27574825       0.27328873       0.16328239 </v>
   <v>       0.08480549       0.62364852       0.81395698 </v>
   <v>       0.21233892       0.90765333       0.69120693 </v>
   <v>       0.01143074       0.22322273       0.56149197 </v>
   <v>       0.57990265       0.89702195       0.61190510 </v>
   <v>       0.57989597       0.86095428       0.93570137 </v>
   <v>       0.95627117       0.62980032       0.24042797 </v>
   <v>       0.56300068       0.07053876       0.49374771 </v>
   <v>       0.11996591       0.83282566       0.59493160 </v>
   <v>       0.73285937       0.81877136       0.87319756 </v>
   <v>       0.78737211       0.15446663       0.19799995 </v>
   <v>       0.38744259       0.00417995       0.23215771 </v>
   <v>       0.02260447       0.27619171       0.62831306 </v>
   <v>       0.79243183       0.75135899       0.62479401 </v>
   <v>       0.19158745       0.47867209       0.59733725 </v>
   <v>       0.44714975       0.26433372       0.15373039 </v>
   <v>       0.31116581       0.36870766       0.63241005 </v>
   <v>       0.55219078       0.12656271       0.50291920 </v>
   <v>       0.05065084       0.49120766       0.94390631 </v>
   <v>       0.74544621       0.87153435       0.25261974 </v>
   <v>       0.88014603       0.42000771       0.04790688 </v>
   <v>       0.76789308       0.47176743       0.75260115 </v>
   <v>       0.94137383       0.24709630       0.99346161 </v>
   <v>       0.56724548       0.93348360       0.57371521 </v>
   <v>       0.09457111       0.63031578       0.21154785 </v>
   <v>       0.55164814       0.40530109       0.77874565 </v>
   <v>       0.93170643       0.76652956       0.51614213 </v>
   <v>       0.56956232       0.69669724       0.24685669 </v>
   <v>       0.23636913       0.15294302       0.11459208 </v>
   <v>       0.61951160       0.79718971       0.44437122 </v>
   <v>       0.93492842       0.05071068       0.57592177 </v>
   <v>       0.97716618       0.92650414       0.81088734 </v>
   <v>       0.22158766       0.14399147       0.38278770 </v>
   <v>       0.51667786       0.82755232       0.40912986 </v>
   <v>       0.94334494       0.44591904       0.51568747 </v>
   <v>       0.41524792       0.10543251       0.73200607 </v>
   <v>       0.05358315       0.20666790       0.88023853 </v>
   <v>       0.95550299       0.11380577       0.59114838 </v>
   <v>       0.89538145       0.86503935       0.16759586 </v>
   <v>       0.41061330       0.99974442       0.91506481 </v>
   <v>       0.84826183       0.20459843       0.67598104 </v>
   <v>       0.92991066       0.92691660       0.49696517 </v>
   <v>       0.85358554       0.74885869       0.45691776 </v>
   <v>       0.09016609       0.99287176       0.91575241 </v>
   <v>       0.49816370       0.77599144       0.69737530 </v>
   <v>       0.15890312       0.13167763       0.08100319 </v>
   <v>       0.21634960       0.87266803       0.40761375 </v>
   <v>       0.02123451       0.99721813       0.22971916 </v>
   <v>       0.59209418       0.08968353       0.98747110 </v>
   <v>       0.53562450       0.93608713       0.49395847 </v>
   <v>       0.68957138       0.32386863       0.36506653 </v>
   <v>       0.17904758       0.90954018       0.22345543 </v>
   <v>       0.97571278       0.52023733       0.90906525 </v>
   <v>       0.94697332       0.99495312       0.31532216 </v>
   <v>       0.35968399       0.34011316       0.00349510 </v>
   <v>       0.04733562       0.72943294       0.87252331 </v>
   <v>       0.04982615       0.08401299       0.30737567 </v>
   <v>       0.65060568       0.54211521       0.63849640 </v>
   <v>       0.49737358       0.40222836       0.43276119 </v>
   <v>       0.28960991       0.52980518       0.90403175 </v>
   <v>       0.91525555       0.20249891       0.65330267 </v>
   <v>       0.97439194       0.03070116       0.33305502 </v>
   <v>       0.11497593       0.90817690       0.27453423 </v>
   <v>       0.24748755       0.97901630       0.73809147 </v>
   <v>       0.84165287       0.72366142       0.56145382 </v>
   <v>       0.75542283       0.25349808       0.27828503 </v>
   <v>       0.10888195       0.59038925       0.98792458 </v>
   <v>       0.65551615       0.10522461       0.04819679 </v>
   <v>       0.99022388       0.10105515       0.07849121 </v>
   <v>       0.47486019       0.55235767       0.29242611 </v>
   <v>       0.60476589       0.24553585       0.66079807 </v>
   <v>       0.70291901       0.42850173       0.48251426 </v>
   <v>       0.57778454       0.98264307       0.12959862 </v>
   <v>       0.76199913       0.39027500       0.88169813 </v>
   <v>       0.56175786       0.52792645       0.40264702 </v>
   <v>       0.81720638       0.17041779       0.04687691 </v>
   <v>       0.21255779       0.77705254       0.13142014 </v>
   <v>       0.33160877       0.22817206       0.84197617 </v>
   <v>       0.05774355       0.24761772       0.09295416 </v>
   <v>       0.10921812       0.61693621       0.44621658 </v>
   <v>       0.97560120       0.44056606       0.01765060 </v>
   <v>       0.10127735       0.64331055       0.11222267 </v>
   <v>       0.25186920       0.20579600       0.13450241 </v>
   <v>       0.15289783       0.13317180       0.15143085 </v>
   <v>       0.00865960       0.92404222       0.84006119 </v>
   <v>       0.31087124       0.82039738       0.74646473 </v>
   <v>       0.63811445       0.36646163       0.74868107 </v>
   <v>       0.22208619       0.95480633       0.74719018 </v>
   <v>       0.99549961       0.97611904       0.34963322 </v>
   <v>       0.56398153       0.64198923       0.89747453 </v>
   <v>       0.84554863       0.31589508       0.50190735 </v>
   <v>       0.40943995       0.39366388       0.56828785 </v>
   <v>       0.47502244       0.41449356       0.68007469 </v>
   <v>       0.84905481       0.42335844       0.73999119 </v>
   <v>       0.36048126       0.48268032       0.54496717 </v>
   <v>       0.22475910       0.00588846       0.22202229 </v>
   <v>       0.81428957       0.02206039       0.73071575 </v>
   <v>       0.13531590       0.37255979       0.88184834 </v>
   <v>       0.50217724       0.28408587       0.98533225 </v>
   <v>       0.43622410       0.02681494       0.15913916 </v>
   <v>       0.43818808       0.86957455       0.21880627 </v>
   <v>       0.05964279       0.79113197       0.81028688 </v>
   <v>       0.93317795       0.67789602       0.98294067 </v>
   <v>       0.80019760       0.01261210       0.66703510 </v>
   <v>       0.98166752       0.49180746       0.77023263 </v>
   <v>       0.67028522       0.66890013       0.31506205 </v>
   <v>       0.58495235       0.47439098       0.27113628 </v>
   <v>       0.60230279       0.27137947       0.68260956 </v>
   <v>       0.54209709       0.94434929       0.26160717 </v>
   <v>       0.07408524       0.92765410       0.83147556 </v>
   <v>       0.92500877       0.70097637       0.42318654 </v>
   <v>       0.54293144       0.54525101       0.07775140 </v>
   <v>       0.04449749       0.93399048       0.59235477 </v>
   <v>       0.87957263       0.18028212       0.09486008 </v>
   <v>       0.09132290       0.34477139       0.57975101 </v>
   <v>       0.69491553       0.14479446       0.86600876 </v>
   <v>       0.65507865       0.47177219       0.13409996 </v>
   <v>       0.72536945       0.54780674       0.39158440 </v>
   <v>       0.61976695       0.19075966       0.73183393 </v>
   <v>       0.42747402       0.53638983       0.34723616 </v>
   <v>       0.49468422       0.30986667       0.55502224 </v>
   <v>       0.66631126       0.50149810       0.29209948 </v>
   <v>       0.98235989       0.25300694       0.36566734 </v>
   <v>       0.41132545       0.97090483       0.60721874 </v>
   <v>       0.11307049       0.32013798       0.27692795 </v>
   <v>       0.83369327       0.50357437       0.21148586 </v>
   <v>       0.33913803       0.26359415       0.96268030 </v>
   <v>       0.21258450       0.92829609       0.81942654 </v>
   <v>       0.13753033       0.40929365       0.25018024 </v>
   <v>       0.40568137       0.89596057       0.48044538 </v>
   <v>       0.73139095       0.35673213       0.48328781 </v>
   <v>       0.22601032       0.66128159       0.12512016 </v>
   <v>       0.01773262       0.34152603       0.60747862 </v>
   <v>       0.36928272       0.73678350       0.06999111 </v>
   <v>       0.88739300       0.78841305       0.39671040 </v>
   <v>       0.95151520       0.71928310       0.08237457 </v>
   <v>       0.87570292       0.30780602       0.26811695 </v>
   <v>       0.92787218       0.52160645       0.77618980 </v>
   <v>       0.19564056       0.57413864       0.49923182 </v>
   <v>       0.34831810       0.58840370       0.93839359 </v>
   <v>       0.46844673       0.16189003       0.33973932 </v>
   <v>       0.77585697       0.02987099       0.44305897 </v>
   <v>       0.01753044       0.97819710       0.92572069 </v>
   <v>       0.19682121       0.48280954       0.62198830 </v>
   <v>       0.83501148       0.44190025       0.42361736 </v>
   <v>       0.31131172       0.06355286       0.31144142 </v>
   <v>       0.79609966       0.86720943       0.36093140 </v>
   <v>       0.94403839       0.34276485       0.81315041 </v>
   <v>       0.46461010       0.46497703       0.20890284 </v>
   <v>       0.34010696       0.09250736       0.00226641 </v>
   <v>       0.92356205       0.54376411       0.91685867 </v>
   <v>       0.82178259       0.13957739       0.47494984 </v>
   <v>       0.57746744       0.98963070       0.22639847 </v>
   <v>       0.44289994       0.64083719       0.51523638 </v>
   <v>       0.47141933       0.03696251       0.96995068 </v>
   <v>       0.60862064       0.04894829       0.57527733 </v>
   <v>       0.68413877       0.12057209       0.64258385 </v>
   <v>       0.64505577       0.85662460       0.02801106 </v>
   <v>       0.69798470       0.09802389       0.84742832 </v>
   <v>       0.79778886       0.32241964       0.79049587 </v>
   <v>       0.95181227       0.07111931       0.94305849 </v>
   <v>       0.87280226       0.36807060       0.00680637 </v>
   <v>       0.45151210       0.99302673       0.31088352 </v>
   <v>       0.29526615       0.68950558       0.29728317 </v>
   <v>       0.85163975       0.95821857       0.07202864 </v>
   <v>       0.14346600       0.91202927       0.42342687 </v>
   <v>       0.38461494       0.84636307       0.20641041 </v>
   <v>       0.43616009       0.54826164       0.16956520 </v>
   <v>       0.98829365       0.72539032       0.51403284 </v>
   <v>       0.33157873       0.45053911       0.54426622 </v>
   <v>       0.40753651       0.16168356       0.88745515 </v>
   <v>       0.84987092       0.07572937       0.29943085 </v>
   <v>       0.51115298       0.95423889       0.55506337 </v>
   <v>       0.91985893       0.38940400       0.00692332 </v>
   <v>       0.41322505       0.53680134       0.04188538 </v>
   <v>       0.21577168       0.11468482       0.04179001 </v>
   <v>       0.27375555       0.49660957       0.69506502 </v>
   <v>       0.59917068       0.82877684       0.91773605 </v>
   <v>       0.31109095       0.56233263       0.03793335 </v>
   <v>       0.82815266       0.97315788       0.91268158 </v>
   <v>       0.67087716       0.05157089       0.10699034 </v>
   <v>       0.86355019       0.29974747       0.63665390 </v>
   <v>       0.71620870       0.95248032       0.72444153 </v>
   <v>       0.79365098       0.66488862       0.00029945 </v>
   <v>       0.23507559       0.06527185       0.09509277 </v>
   <v>       0.12784195       0.07460213       0.67535210 </v>
   <v>       0.51400089       0.32492638       0.95766258 </v>
   <v>       0.17542171       0.26028442       0.87806928 </v>
   <v>       0.15292740       0.31015635       0.93644667 </v>
   <v>       0.08738661       0.18856800       0.44614124 </v>
   <v>       0.01077849       0.26180458       0.41816807 </v>
   <v>       0.14630985       0.30993366       0.93766880 </v>
   <v>       0.77626228       0.03346729       0.27922916 </v>
   <v>       0.66025639       0.70089245       0.26525784 </v>
   <v>       0.21898413       0.67719364       0.71757650 </v>
   <v>       0.96563196       0.33252096       0.59947634 </v>
   <v>       0.26544809       0.31028366       0.44396973 </v>
   <v>       0.31247616       0.81465054       0.54293633 </v>
   <v>       0.66372585       0.71692085       0.78184745 </v>
   <v>       0.30858040       0.16170216       0.45861220 </v>
   <v>       0.42029285       0.83329391       0.66564357 </v>
   <v>       0.86228800       0.26258850       0.13273430 </v>
   <v>       0.60581684       0.79328823       0.60132217 </v>
   <v>       0.61728954       0.04202366       0.89628696 </v>
   <v>       0.62726164       0.83010042       0.18634605 </v>
   <v>       0.73476887       0.65802670       0.04286003 </v>
   <v>       0.87713909       0.36166763       0.27267432 </v>
   <v>       0.32281685       0.29707518       0.52678421 </v>
   <v>       0.71290874       0.06095934       0.91706276 </v>
   <v>       0.47387314       0.48126984       0.08010960 </v>
   <v>       0.24979019       0.07094455       0.88828921 </v>
   <v>       0.52491951       0.59148741       0.71282816 </v>
   <v>       0.59626198       0.52047253       0.50370884 </v>
   <v>       0.16550732       0.93986511       0.90094185 </v>
   <v>       0.14325333       0.36675644       0.45689452 </v>
   <v>       0.14142942       0.11538506       0.57525301 </v>
   <v>       0.87411785       0.96815920       0.80967140 </v>
   <v>       0.59457242       0.26896954       0.75767088 </v>
   <v>       0.36298561       0.22546196       0.03769970 </v>
   <v>       0.80699444       0.65873718       0.10056591 </v>
   <v>       0.44170952       0.05848551       0.41307878 </v>
   <v>       0.86160232       0.80505228       0.56467247 </v>
   <v>       0.25973701       0.52747250       0.62089097 </v>
   <v>       0.66177845       0.61888027       0.19170332 </v>
   <v>       0.85332870       0.37410402       0.13071442 </v>
   <v>       0.94029713       0.21336842       0.80910850 </v>
   <v>       0.93409920       0.82681465       0.70424747 </v>
   <v>       0.47167289       0.95388031       0.38053894 </v>
   <v>       0.85449600       0.84416771       0.37077641 </v>
   <v>       0.17442608       0.33100033       0.04424191 </v>
   <v>       0.16818309       0.82896888       0.17257833 </v>
   <v>       0.57155406       0.81699109       0.16077423 </v>
   <v>       0.04643440       0.65416241       0.34854412 </v>
   <v>       0.29748821       0.06096864       0.19094467 </v>
   <v>       0.22463083       0.47082806       0.23127079 </v>
   <v>       0.44059777       0.90984917       0.04478741 </v>
   <v>       0.59373379       0.40568161       0.68374515 </v>
   <v>       0.93684900       0.39876270       0.08680248 </v>
   <v>       0.16025400       0.91891098       0.31502295 </v>
   <v>       0.90796709       0.57001686       0.41299438 </v>
   <v>       0.96326065       0.75874591       0.28130484 </v>
   <v>       0.97264576       0.96572876       0.06127357 </v>
   <v>       0.45246792       0.55578995       0.97043419 </v>
   <v>       0.29831982       0.46866417       0.73474264 </v>
   <v>       0.70289040       0.26319599       0.49653244 </v>
   <v>       0.40693188       0.67346382       0.88228083 </v>
   <v>       0.76681519       0.85023117       0.89857009 </v>
   <v>       0.96819878       0.81756687       0.10116982 </v>
   <v>       0.82269955       0.43165064       0.13797188 </v>
   <v>       0.17738771       0.12391472       0.16455388 </v>
   <v>       0.83179653       0.72946930       0.10902596 </v>
   <v>       0.62015104       0.23495102       0.47773409 </v>
   <v>       0.91653930       0.97239017       0.83238411 </v>
   <v>       0.36385250       0.71359885       0.87490845 </v>
   <v>       0.31868219       0.45387858       0.81708336 </v>
   <v>       0.72605801       0.20979500       0.17720413 </v>
   <v>       0.39637184       0.86695099       0.95932293 </v>
   <v>       0.40228248       0.14614677       0.89824629 </v>
   <v>       0.72828865       0.20273495       0.83044422 </v>
   <v>       0.79574919       0.49238586       0.84652662 </v>
   <v>       0.52040577       0.37331009       0.95124435 </v>
   <v>       0.38382816       0.47491074       0.57490158 </v>
   <v>       0.23875523       0.23388910       0.75370145 </v>
   <v>       0.29767418       0.24059594       0.00740242 </v>
   <v>       0.90782166       0.55504513       0.13285542 </v>
   <v>       0.35928917       0.64666748       0.20767641 </v>
   <v>       0.93917084       0.85179862       0.29921269 </v>
   <v>       0.65277958       0.31983614       0.09473574 </v>
   <v>       0.79345608       0.96467829       0.73053074 </v>
   <v>       0.80013371       0.84304523       0.94307709 </v>
   <v>       0.19794655       0.55526972       0.12195456 </v>
   <v>       0.71976662       0.56917000       0.80160809 </v>
   <v>       0.26804352       0.22047663       0.53493544 </v>
   <v>       0.80936718       0.91695642       0.26372528 </v>
[...]
   <v type="logical" >  T  T  T </v>
   <v type="logical" >  T  T  T </v>
   <v type="logical" >  T  T  T </v>
   <v type="logical" >  T  T  T </v>
   <v type="logical" >  T  T  T </v>
   <v type="logical" >  T  T  T </v>
   <v type="logical" >  T  T  T </v>
   <v type="logical" >  T  T  T </v>
   <v type="logical" >  T  T  T </v>
   <v type="logical" >  T  T  T </v>
   <v type="logical" >  T  T  T </v>
   <v type="logical" >  T  T  T </v>
   <v type="logical" >  T  T  T </v>
   <v type="logical" >  T  T  T </v>
   <v type="logical" >  T  T  T </v>
   <v type="logical" >  T  T  T </v>
   <v type="logical" >  T  T  T </v>
   <v type="logical" >  T  T  T </v>
   <v type="logical" >  T  T  T </v>
   <v type="logical" >  T  T  T </v>
   <v type="logical" >  T  T  T </v>
   <v type="logical" >  T  T  T </v>
   <v type="logical" >  T  T  T </v>
   <v type="logical" >  T  T  T </v>
   <v type="logical" >  T  T  T </v>
   <v type="logical" >  T  T  T </v>
   <v type="logical" >  T  T  T </v>
   <v type="logical" >  T  T  T </v>
   <v type="logical" >  T  T  T </v>
   <v type="logical" >  T  T  T </v>
   <v type="logical" >  T  T  T </v>
   <v type="logical" >  T  T  T </v>
   <v type="logical" >  T  T  T </v>
   <v type="logical" >  T  T  T </v>
   <v type="logical" >  T  T  T </v>
   <v type="logical" >  T  T  T </v>
   <v type="logical" >  T  T  T </v>
   <v type="logical" >  T  T  T </v>
   <v type="logical" >  T  T  T </v>
   <v type="logical" >  T  T  T </v>
   <v type="logical" >  T  T  T </v>
   <v type="logical" >  T  T  T </v>
   <v type="logical" >  T  T  T </v>
   <v type="logical" >  T  T  T </v>
   <v type="logical" >  T  T  T </v>
   <v type="logical" >  T  T  T </v>
   <v type="logical" >  T  T  T </v>
   <v type="logical" >  T  T  T </v>
   <v type="logical" >  T  T  T </v>
   <v type="logical" >  T  T  T </v>
   <v type="logical" >  T  T  T </v>
   <v type="logical" >  T  T  T </v>
   <v type="logical" >  T  T  T </v>
   <v type="logical" >  T  T  T </v>
   <v type="logical" >  T  T  T </v>
   <v type="logical" >  T  T  T </v>
   <v type="logical" >  T  T  T </v>
   <v type="logical" >  T  T  T </v>
   <v type="logical" >  T  T  T </v>
   <v type="logical" >  T  T  T </v>
   <v type="logical" >  T  T  T </v>
   <v type="logical" >  T  T  T </v>
   <v type="logical" >  T  T  T </v>
   <v type="logical" >  T  T  T </v>
   <v type="logical" >  T  T  T </v>
   <v type="logical" >  T  T  T </v>
   <v type="logical" >  T  T  T </v>
   <v type="logical" >  T  T  T </v>
   <v type="logical" >  T  T  T </v>
   <v type="logical" >  T  T  T </v>
   <v type="logical" >  T  T  T </v>
   <v type="logical" >  T  T  T </v>
   <v type="logical" >  T  T  T </v>
   <v type="logical" >  T  T  T </v>
   <v type="logical" >  T  T  T </v>
   <v type="logical" >  T  T  T </v>
   <v type="logical" >  T  T  T </v>
   <v type="logical" >  T  T  T </v>
   <v type="logical" >  T  T  T </v>
   <v type="logical" >  T  T  T </v>
   <v type="logical" >  T  T  T </v>
   <v type="logical" >  T  T  T </v>
   <v type="logical" >  T  T  T </v>
   <v type="logical" >  T  T  T </v>
   <v type="logical" >  T  T  T </v>
   <v type="logical" >  T  T  T </v>
   <v type="logical" >  T  T  T </v>
   <v type="logical" >  T  T  T </v>
   <v type="logical" >  T  T  T </v>
   <v type="logical" >  T  T  T </v>
   <v type="logical" >  T  T  T </v>
   <v type="logical" >  T  T  T </v>
   <v type="logical" >  T  T  T </v>
   <v type="logical" >  T  T  T </v>
   <v type="logical" >  T  T  T </v>
   <v type="logical" >  T  T  T </v>
   <v type="logical" >  T  T  T </v>
   <v type="logical" >  T  T  T </v>
   <v type="logical" >  T  T  T </v>
   <v type="logical" >  T  T  T </v>
   <v type="logical" >  T  T  T </v>
   <v type="logical" >  T  T  T </v>
   <v type="logical" >  T  T  T </v>
   <v type="logical" >  T  T  T </v>
   <v type="logical" >  T  T  T </v>
   <v type="logical" >  T  T  T </v>
   <v type="logical" >  T  T  T </v>
   <v type="logical" >  T  T  T </v>
   <v type="logical" >  T  T  T </v>
   <v type="logical" >  T  T  T </v>
   <v type="logical" >  T  T  T </v>
   <v type="logical" >  T  T  T </v>
   <v type="logical" >  T  T  T </v>
   <v type="logical" >  T  T  T </v>
   <v type="logical" >  T  T  T </v>
   <v type="logical" >  T  T  T </v>
   <v type="logical" >  T  T  T </v>
   <v type="logical" >  T  T  T </v>
   <v type="logical" >  T  T  T </v>
   <v type="logical" >  T  T  T </v>
   <v type="logical" >  T  T  T </v>
   <v type="logical" >  T  T  T </v>
   <v type="logical" >  T  T  T </v>
   <v type="logical" >  T  T  T </v>
   <v type="logical" >  T  T  T </v>
   <v type="logical" >  T  T  T </v>
   <v type="logical" >  T  T  T </v>
   <v type="logical" >  T  T  T </v>
   <v type="logical" >  T  T  T </v>
   <v type="logical" >  T  T  T </v>
   <v type="logical" >  T  T  T </v>
   <v type="logical" >  T  T  T </v>
   <v type="logical" >  T  T  T </v>
   <v type="logical" >  T  T  T </v>
   <v type="logical" >  T  T  T </v>
   <v type="logical" >  T  T  T </v>
   <v type="logical" >  T  T  T </v>
   <v type="logical" >  T  T  T </v>
   <v type="logical" >  T  T  T </v>
   <v type="logical" >  T  T  T </v>
   <v type="logical" >  T  T  T </v>
   <v type="logical" >  T  T  T </v>
   <v type="logical" >  T  T  T </v>
   <v type="logical" >  T  T  T </v>
   <v type="logical" >  T  T  T </v>
   <v type="logical" >  T  T  T </v>
   <v type="logical" >  T  T  T </v>
   <v type="logical" >  T  T  T </v>
   <v type="logical" >  T  T  T </v>
   <v type="logical" >  T  T  T </v>
   <v type="logical" >  T  T  T </v>
   <v type="logical" >  T  T  T </v>
   <v type="logical" >  T  T  T </v>
   <v type="logical" >  T  T  T </v>
   <v type="logical" >  T  T  T </v>
   <v type="logical" >  T  T  T </v>
   <v type="logical" >  T  T  T </v>
   <v type="logical" >  T  T  T </v>
   <v type="logical" >  T  T  T </v>
   <v type="logical" >  T  T  T </v>
   <v type="logical" >  T  T  T </v>
   <v type="logical" >  T  T  T </v>
   <v type="logical" >  T  T  T </v>
   <v type="logical" >  T  T  T </v>
   <v type="logical" >  T  T  T </v>
   <v type="logical" >  T  T  T </v>
   <v type="logical" >  T  T  T </v>
   <v type="logical" >  T  T  T </v>
   <v type="logical" >  T  T  T </v>
   <v type="logical" >  T  T  T </v>
   <v type="logical" >  T  T  T </v>
   <v type="logical" >  T  T  T </v>
   <v type="logical" >  T  T  T </v>
   <v type="logical" >  T  T  T </v>
   <v type="logical" >  T  T  T </v>
   <v type="logical" >  T  T  T </v>
   <v type="logical" >  T  T  T </v>
   <v type="logical" >  T  T  T </v>
   <v type="logical" >  T  T  T </v>
   <v type="logical" >  T  T  T </v>
   <v type="logical" >  T  T  T </v>
   <v type="logical" >  T  T  T </v>
   <v type="logical" >  T  T  T </v>
   <v type="logical" >  T  T  T </v>
   <v type="logical" >  T  T  T </v>
   <v type="logical" >  T  T  T </v>
   <v type="logical" >  T  T  T </v>
   <v type="logical" >  T  T  T </v>
   <v type="logical" >  T  T  T </v>
   <v type="logical" >  T  T  T </v>
   <v type="logical" >  T  T  T </v>
   <v type="logical" >  T  T  T </v>
   <v type="logical" >  T  T  T </v>
   <v type="logical" >  T  T  T </v>
   <v type="logical" >  T  T  T </v>
   <v type="logical" >  T  T  T </v>
   <v type="logical" >  T  T  T </v>
   <v type="logical" >  T  T  T </v>
   <v type="logical" >  T  T  T </v>
   <v type="logical" >  T  T  T </v>
   <v type="logical" >  T  T  T </v>
   <v type="logical" >  T  T  T </v>
   <v type="logical" >  T  T  T </v>
   <v type="logical" >  T  T  T </v>
   <v type="logical" >  T  T  T </v>
   <v type="logical" >  T  T  T </v>
   <v type="logical" >  T  T  T </v>
   <v type="logical" >  T  T  T </v>
   <v type="logical" >  T  T  T </v>
   <v type="logical" >  T  T  T </v>
   <v type="logical" >  T  T  T </v>
   <v type="logical" >  T  T  T </v>
   <v type="logical" >  T  T  T </v>
   <v type="logical" >  T  T  T </v>
   <v type="logical" >  T  T  T </v>
   <v type="logical" >  T  T  T </v>
   <v type="logical" >  T  T  T </v>
   <v type="logical" >  T  T  T </v>
   <v type="logical" >  T  T  T </v>
   <v type="logical" >  T  T  T </v>
   <v type="logical" >  T  T  T </v>
   <v type="logical" >  T  T  T </v>
   <v type="logical" >  T  T  T </v>
   <v type="logical" >  T  T  T </v>
   <v type="logical" >  T  T  T </v>
   <v type="logical" >  T  T  T </v>
   <v type="logical" >  T  T  T </v>
   <v type="logical" >  T  T  T </v>
   <v type="logical" >  T  T  T </v>
   <v type="logical" >  T  T  T </v>
   <v type="logical" >  T  T  T </v>
   <v type="logical" >  T  T  T </v>
   <v type="logical" >  T  T  T </v>
   <v type="logical" >  T  T  T </v>
   <v type="logical" >  T  T  T </v>
   <v type="logical" >  T  T  T </v>
   <v type="logical" >  T  T  T </v>
   <v type="logical" >  T  T  T </v>
   <v type="logical" >  T  T  T </v>
   <v type="logical" >  T  T  T </v>
   <v type="logical" >  T  T  T </v>
   <v type="logical" >  T  T  T </v>
   <v type="logical" >  T  T  T </v>
   <v type="logical" >  T  T  T </v>
   <v type="logical" >  T  T  T </v>
   <v type="logical" >  T  T  T </v>
   <v type="logical" >  T  T  T </v>
   <v type="logical" >  T  T  T </v>
   <v type="logical" >  T  T  T </v>
   <v type="logical" >  T  T  T </v>
   <v type="logical" >  T  T  T </v>
   <v type="logical" >  T  T  T </v>
   <v type="logical" >  T  T  T </v>
   <v type="logical" >  T  T  T </v>
   <v type="logical" >  T  T  T </v>
   <v type="logical" >  T  T  T </v>
   <v type="logical" >  T  T  T </v>
   <v type="logical" >  T  T  T </v>
   <v type="logical" >  T  T  T </v>
   <v type="logical" >  T  T  T </v>
   <v type="logical" >  T  T  T </v>
   <v type="logical" >  T  T  T </v>
   <v type="logical" >  T  T  T </v>
   <v type="logical" >  T  T  T </v>
   <v type="logical" >  T  T  T </v>
   <v type="logical" >  T  T  T </v>
   <v type="logical" >  T  T  T </v>
   <v type="logical" >  T  T  T </v>
   <v type="logical" >  T  T  T </v>
   <v type="logical" >  T  T  T </v>
   <v type="logical" >  T  T  T </v>
   <v type="logical" >  T  T  T </v>
   <v type="logical" >  T  T  T </v>
   <v type="logical" >  T  T  T </v>
   <v type="logical" >  T  T  T </v>
   <v type="logical" >  T  T  T </v>
   <v type="logical" >  T  T  T </v>
   <v type="logical" >  T  T  T </v>
   <v type="logical" >  T  T  T </v>
   <v type="logical" >  T  T  T </v>
   <v type="logical" >  T  T  T </v>
   <v type="logical" >  T  T  T </v>
   <v type="logical" >  T  T  T </v>
   <v type="logical" >  T  T  T </v>
   <v type="logical" >  T  T  T </v>
   <v type="logical" >  T  T  T </v>
   <v type="logical" >  T  T  T </v>
   <v type="logical" >  T  T  T </v>
   <v type="logical" >  T  T  T </v>
   <v type="logical" >  T  T  T </v>
   <v type="logical" >  T  T  T </v>
   <v type="logical" >  T  T  T </v>
   <v type="logical" >  T  T  T </v>
   <v type="logical" >  T  T  T </v>
   <v type="logical" >  T  T  T </v>
   <v type="logical" >  T  T  T </v>
   <v type="logical" >  T  T  T </v>
   <v type="logical" >  T  T  T </v>
   <v type="logical" >  T  T  T </v>
   <v type="logical" >  T  T  T </v>
   <v type="logical" >  T  T  T </v>
   <v type="logical" >  T  T  T </v>
   <v type="logical" >  T  T  T </v>
   <v type="logical" >  T  T  T </v>
   <v type="logical" >  T  T  T </v>
   <v type="logical" >  T  T  T </v>
   <v type="logical" >  T  T  T </v>
   <v type="logical" >  T  T  T </v>
   <v type="logical" >  T  T  T </v>
   <v type="logical" >  T  T  T </v>
   <v type="logical" >  T  T  T </v>
   <v type="logical" >  T  T  T </v>
   <v type="logical" >  T  T  T </v>
   <v type="logical" >  T  T  T </v>
   <v type="logical" >  T  T  T </v>
   <v type="logical" >  T  T  T </v>
   <v type="logical" >  T  T  T </v>
   <v type="logical" >  T  T  T </v>
   <v type="logical" >  T  T  T </v>
   <v type="logical" >  T  T  T </v>
   <v type="logical" >  T  T  T </v>
   <v type="logical" >  T  T  T </v>
   <v type="logical" >  T  T  T </v>
   <v type="logical" >  T  T  T </v>
   <v type="logical" >  T  T  T </v>
   <v type="logical" >  T  T  T </v>
   <v type="logical" >  T  T  T </v>
   <v type="logical" >  T  T  T </v>
   <v type="logical" >  T  T  T </v>
   <v type="logical" >  T  T  T </v>
   <v type="logical" >  T  T  T </v>
   <v type="logical" >  T  T  T </v>
   <v type="logical" >  T  T  T </v>
   <v type="logical" >  T  T  T </v>
   <v type="logical" >  T  T  T </v>
   <v type="logical" >  T  T  T </v>
   <v type="logical" >  T  T  T </v>
   <v type="logical" >  T  T  T </v>
   <v type="logical" >  T  T  T </v>
   <v type="logical" >  T  T  T </v>
   <v type="logical" >  T  T  T </v>
   <v type="logical" >  T  T  T </v>
   <v type="logical" >  T  T  T </v>
   <v type="logical" >  T  T  T </v>
   <v type="logical" >  T  T  T </v>
   <v type="logical" >  T  T  T </v>
   <v type="logical" >  T  T  T </v>
   <v type="logical" >  T  T  T </v>
   <v type="logical" >  T  T  T </v>
   <v type="logical" >  T  T  T </v>
   <v type="logical" >  T  T  T </v>
   <v type="logical" >  T  T  T </v>
   <v type="logical" >  T  T  T </v>
   <v type="logical" >  T  T  T </v>
   <v type="logical" >  T  T  T </v>
   <v type="logical" >  T  T  T </v>
   <v type="logical" >  T  T  T </v>
   <v type="logical" >  T  T  T </v>
   <v type="logical" >  T  T  T </v>
   <v type="logical" >  T  T  T </v>
   <v type="logical" >  T  T  T </v>
   <v type="logical" >  T  T  T </v>
   <v type="logical" >  T  T  T </v>
   <v type="logical" >  T  T  T </v>
   <v type="logical" >  T  T  T </v>
   <v type="logical" >  T  T  T </v>
   <v type="logical" >  T  T  T </v>
   <v type="logical" >  T  T  T </v>
   <v type="logical" >  T  T  T </v>
   <v type="logical" >  T  T  T </v>
   <v type="logical" >  T  T  T </v>
   <v type="logical" >  T  T  T </v>
   <v type="logical" >  T  T  T </v>
   <v type="logical" >  T  T  T </v>
   <v type="logical" >  T  T  T </v>
   <v type="logical" >  T  T  T </v>
   <v type="logical" >  T  T  T </v>
   <v type="logical" >  T  T  T </v>
   <v type="logical" >  T  T  T </v>
   <v type="logical" >  T  T  T </v>
   <v type="logical" >  T  T  T </v>
   <v type="logical" >  T  T  T </v>
   <v type="logical" >  T  T  T </v>
   <v type="logical" >  T  T  T </v>
   <v type="logical" >  T  T  T </v>
   <v type="logical" >  T  T  T </v>
   <v type="logical" >  T  T  T </v>
   <v type="logical" >  T  T  T </v>
   <v type="logical" >  T  T  T </v>
   <v type="logical" >  T  T  T </v>
   <v type="logical" >  T  T  T </v>
   <v type="logical" >  T  T  T </v>
   <v type="logical" >  T  T  T </v>
   <v type="logical" >  T  T  T </v>
   <v type="logical" >  T  T  T </v>
   <v type="logical" >  T  T  T </v>
   <v type="logical" >  T  T  T </v>
   <v type="logical" >  T  T  T </v>
   <v type="logical" >  T  T  T </v>
   <v type="logical" >  T  T  T </v>
   <v type="logical" >  T  T  T </v>
   <v type="logical" >  T  T  T </v>
   <v type="logical" >  T  T  T </v>
   <v type="logical" >  T  T  T </v>
   <v type="logical" >  T  T  T </v>
   <v type="logical" >  T  T  T </v>
   <v type="logical" >  T  T  T </v>
   <v type="logical" >  T  T  T </v>
   <v type="logical" >  T  T  T </v>
   <v type="logical" >  T  T  T </v>
   <v type="logical" >  T  T  T </v>
   <v type="logical" >  T  T  T </v>
   <v type="logical" >  T  T  T </v>
   <v type="logical" >  T  T  T </v>
   <v type="logical" >  T  T  T </v>
   <v type="logical" >  T  T  T </v>
   <v type="logical" >  T  T  T </v>
   <v type="logical" >  T  T  T </v>
   <v type="logical" >  T  T  T </v>
   <v type="logical" >  T  T  T </v>
   <v type="logical" >  T  T  T </v>
   <v type="logical" >  T  T  T </v>
   <v type="logical" >  T  T  T </v>
   <v type="logical" >  T  T  T </v>
   <v type="logical" >  T  T  T </v>
   <v type="logical" >  T  T  T </v>
   <v type="logical" >  T  T  T </v>
   <v type="logical" >  T  T  T </v>
   <v type="logical" >  T  T  T </v>
   <v type="logical" >  T  T  T </v>
   <v type="logical" >  T  T  T </v>
   <v type="logical" >  T  T  T </v>
   <v type="logical" >  T  T  T </v>
   <v type="logical" >  T  T  T </v>
   <v type="logical" >  T  T  T </v>
   <v type="logical" >  T  T  T </v>
   <v type="logical" >  T  T  T </v>
   <v type="logical" >  T  T  T </v>
   <v type="logical" >  T  T  T </v>
   <v type="logical" >  T  T  T </v>
   <v type="logical" >  T  T  T </v>
   <v type="logical" >  T  T  T </v>
   <v type="logical" >  T  T  T </v>
   <v type="logical" >  T  T  T </v>
   <v type="logical" >  T  T  T </v>
   <v type="logical" >  T  T  T </v>
   <v type="logical" >  T  T  T </v>
   <v type="logical" >  T  T  T </v>
   <v type="logical" >  T  T  T </v>
   <v type="logical" >  T  T  T </v>
   <v type="logical" >  T  T  T </v>
   <v type="logical" >  T  T  T </v>
   <v type="logical" >  T  T  T </v>
   <v type="logical" >  T  T  T </v>
   <v type="logical" >  T  T  T </v>
   <v type="logical" >  T  T  T </v>
   <v type="logical" >  T  T  T </v>
   <v type="logical" >  T  T  T </v>
   <v type="logical" >  T  T  T </v>
   <v type="logical" >  T  T  T </v>
   <v type="logical" >  T  T  T </v>
   <v type="logical" >  T  T  T </v>
   <v type="logical" >  T  T  T </v>
   <v type="logical" >  T  T  T </v>
   <v type="logical" >  T  T  T </v>
   <v type="logical" >  T  T  T </v>
   <v type="logical" >  T  T  T </v>
   <v type="logical" >  T  T  T </v>
   <v type="logical" >  T  T  T </v>
   <v type="logical" >  T  T  T </v>
   <v type="logical" >  T  T  T </v>
   <v type="logical" >  T  T  T </v>
   <v type="logical" >  T  T  T </v>
   <v type="logical" >  T  T  T </v>
   <v type="logical" >  T  T  T </v>
   <v type="logical" >  T  T  T </v>
   <v type="logical" >  T  T  T </v>
   <v type="logical" >  T  T  T </v>
   <v type="logical" >  T  T  T </v>
   <v type="logical" >  T  T  T </v>
   <v type="logical" >  T  T  T </v>
   <v type="logical" >  T  T  T </v>
   <v type="logical" >  T  T  T </v>
  </varray>
  <nose>
   <v>      -3.00000000       0.00000000       0.00010000       0.00010000 </v>
  </nose>
 </structure>
 <calculation>
  <scstep>
   <time name="diag">  502.92  503.45</time>
   <time name="diis">   52.36   52.37</time>
   <time name="orth">   45.61   46.02</time>
   <time name="total">  601.91  602.87</time>
   <energy>
    <i name="alphaZ">  33448.59159205 </i>
    <i name="ewald"> -50585.76777240 </i>
    <i name="hartreedc">-337953.00565488 </i>
    <i name="XCdc">   3636.89007796 </i>
    <i name="pawpsdc"> 321918.23506117 </i>
    <i name="pawaedc">-297592.64259706 </i>
    <i name="eentropy">      0.06061398 </i>
    <i name="bandstr"> -74805.91666991 </i>
    <i name="atom"> 494492.96535744 </i>
    <i name="e_fr_energy">  92559.41000836 </i>
    <i name="e_wo_entrp">  92559.34939438 </i>
    <i name="e_0_energy">  92559.38980370 </i>
   </energy>
  </scstep>
  <scstep>
   <time name="diag">  490.15  490.68</time>
   <time name="diis">   52.29   52.30</time>
   <time name="orth">   45.49   45.91</time>
   <time name="total">  591.32  592.28</time>
   <energy>
    <i name="e_fr_energy">  48751.12836052 </i>
    <i name="e_wo_entrp">  48750.93328283 </i>
    <i name="e_0_energy">  48751.06333462 </i>
   </energy>
  </scstep>
  <scstep>
   <time name="diag">  464.08  464.62</time>
   <time name="diis">   52.36   52.37</time>
   <time name="orth">   45.50   45.88</time>
   <time name="total">  565.63  566.57</time>
   <energy>
    <i name="e_fr_energy">  45366.58666167 </i>
    <i name="e_wo_entrp">  45366.89432624 </i>
    <i name="e_0_energy">  45366.68921653 </i>
   </energy>
  </scstep>
  <scstep>
   <time name="diag">  443.14  443.63</time>
   <time name="diis">   52.36   52.37</time>
   <time name="orth">   45.72   46.12</time>
   <time name="total">  544.70  545.60</time>
   <energy>
    <i name="e_fr_energy">  41541.79464186 </i>
    <i name="e_wo_entrp">  41541.95392784 </i>
    <i name="e_0_energy">  41541.84773719 </i>
   </energy>
  </scstep>
  <scstep>
   <time name="diag">  468.37  468.85</time>
   <time name="diis">   52.38   52.39</time>
